/*--------------------------------*- C++ -*----------------------------------*\
| =========                 |                                                 |
| \\      /  F ield         | OpenFOAM: The Open Source CFD Toolbox           |
|  \\    /   O peration     | Version:  2412                                  |
|   \\  /    A nd           | Website:  www.openfoam.com                      |
|    \\/     M anipulation  |                                                 |
\*---------------------------------------------------------------------------*/
FoamFile
{
    version     2.0;
    format      ascii;
    arch        "LSB;label=32;scalar=64";
    class       volScalarField;
    location    "4e-07";
    object      rho;
}
// * * * * * * * * * * * * * * * * * * * * * * * * * * * * * * * * * * * * * //

dimensions      [0 0 0 0 0 0 0];

internalField   nonuniform List<scalar> 
84
(
2.81174e-05
2.73896e-05
2.73932e-05
2.73933e-05
2.73933e-05
2.73934e-05
2.73934e-05
2.74047e-05
2.82201e-05
2.74917e-05
2.74969e-05
2.74985e-05
2.75001e-05
2.75018e-05
2.75036e-05
2.75149e-05
2.82091e-05
2.74815e-05
2.74863e-05
2.74877e-05
2.74892e-05
2.74907e-05
2.74923e-05
2.75036e-05
2.82e-05
2.74721e-05
2.7477e-05
2.74783e-05
2.74796e-05
2.7481e-05
2.74923e-05
2.81899e-05
2.74615e-05
2.74662e-05
2.74674e-05
2.74685e-05
2.74698e-05
2.74811e-05
2.81792e-05
2.74509e-05
2.74555e-05
2.74564e-05
2.74575e-05
2.74585e-05
2.74698e-05
2.81686e-05
2.74403e-05
2.74447e-05
2.74455e-05
2.74464e-05
2.74473e-05
2.74586e-05
2.81577e-05
2.74299e-05
2.7434e-05
2.74347e-05
2.74353e-05
2.7436e-05
2.74473e-05
2.81477e-05
2.74197e-05
2.74238e-05
2.74243e-05
2.74248e-05
2.74361e-05
2.81373e-05
2.7409e-05
2.74129e-05
2.74133e-05
2.74136e-05
2.74249e-05
2.81264e-05
2.73982e-05
2.7402e-05
2.74022e-05
2.74024e-05
2.74136e-05
2.81049e-05
2.73876e-05
2.73911e-05
2.73911e-05
2.73911e-05
2.73911e-05
2.74024e-05
)
;

boundaryField
{
    inlet
    {
        type            calculated;
        value           nonuniform List<scalar> 0();
    }
    outlet2
    {
        type            calculated;
        value           uniform 0;
    }
    outlet1
    {
        type            calculated;
        value           uniform 0;
    }
    wall
    {
        type            calculated;
        value           uniform 0;
    }
    symmetryBottom
    {
        type            symmetry;
    }
    symmetryZ0
    {
        type            symmetry;
    }
    symmetryZ05
    {
        type            symmetry;
    }
    procBoundary0to1
    {
        type            processor;
        value           uniform 0;
    }
}


// ************************************************************************* //
