/*--------------------------------*- C++ -*----------------------------------*\
| =========                 |                                                 |
| \\      /  F ield         | OpenFOAM: The Open Source CFD Toolbox           |
|  \\    /   O peration     | Version:  2412                                  |
|   \\  /    A nd           | Website:  www.openfoam.com                      |
|    \\/     M anipulation  |                                                 |
\*---------------------------------------------------------------------------*/
FoamFile
{
    version     2.0;
    format      ascii;
    arch        "LSB;label=32;scalar=64";
    class       volScalarField;
    location    "6.3e-06";
    object      rho_dof0;
}
// * * * * * * * * * * * * * * * * * * * * * * * * * * * * * * * * * * * * * //

dimensions      [0 0 0 0 0 0 0];

internalField   nonuniform List<scalar> 
84
(
2.81109e-05
6.00795e-06
1.10281e-05
2.81202e-05
6.01521e-06
1.10351e-05
2.81179e-05
6.01429e-06
1.10338e-05
2.81179e-05
6.01429e-06
1.10338e-05
2.81179e-05
6.01429e-06
1.10338e-05
2.81179e-05
6.01429e-06
1.10338e-05
2.81179e-05
6.01429e-06
1.10338e-05
2.81179e-05
6.01429e-06
1.10338e-05
2.81179e-05
6.01429e-06
1.10338e-05
2.81179e-05
6.01429e-06
1.10338e-05
2.81179e-05
6.01427e-06
1.10338e-05
2.81179e-05
6.01263e-06
1.1033e-05
1.97454e-05
1.86918e-05
1.88874e-05
2.09257e-05
1.97438e-05
1.9955e-05
2.08e-05
1.96317e-05
1.984e-05
2.06749e-05
1.95202e-05
1.96183e-05
1.86371e-05
2.05504e-05
1.94091e-05
1.95045e-05
1.96243e-05
2.04258e-05
1.92981e-05
1.93907e-05
1.95101e-05
2.03016e-05
1.91875e-05
1.92773e-05
1.93962e-05
2.01797e-05
1.90789e-05
1.9166e-05
1.92837e-05
2.00513e-05
1.89646e-05
1.90488e-05
1.90497e-05
1.86955e-05
1.99419e-05
1.88668e-05
1.89487e-05
1.89481e-05
1.90687e-05
1.98169e-05
1.87553e-05
1.88344e-05
1.88327e-05
1.89888e-05
1.96992e-05
1.86502e-05
1.87268e-05
1.8843e-05
)
;

boundaryField
{
    inlet
    {
        type            calculated;
        value           uniform 2.81085e-05;
    }
    outlet2
    {
        type            calculated;
        value           uniform 2.81085e-05;
    }
    outlet1
    {
        type            calculated;
        value           nonuniform List<scalar> 0();
    }
    wall
    {
        type            calculated;
        value           uniform 2.81085e-05;
    }
    symmetryBottom
    {
        type            symmetry;
    }
    symmetryZ0
    {
        type            symmetry;
    }
    symmetryZ05
    {
        type            symmetry;
    }
    procBoundary1to0
    {
        type            processor;
        value           uniform 2.81085e-05;
    }
}


// ************************************************************************* //
