/*--------------------------------*- C++ -*----------------------------------*\
| =========                 |                                                 |
| \\      /  F ield         | OpenFOAM: The Open Source CFD Toolbox           |
|  \\    /   O peration     | Version:  2412                                  |
|   \\  /    A nd           | Website:  www.openfoam.com                      |
|    \\/     M anipulation  |                                                 |
\*---------------------------------------------------------------------------*/
FoamFile
{
    version     2.0;
    format      ascii;
    arch        "LSB;label=32;scalar=64";
    class       volVectorField;
    location    "6.3e-06";
    object      rhoU;
}
// * * * * * * * * * * * * * * * * * * * * * * * * * * * * * * * * * * * * * //

dimensions      [0 0 0 0 0 0 0];

internalField   nonuniform List<vector> 
84
(
(0.0741111 -6.14115e-07 0)
(0.0155685 -6.60714e-07 0)
(0.0289369 -5.52957e-07 -1.20234e-19)
(0.0741358 -0.000137919 0)
(0.0155874 -4.42593e-05 0)
(0.0289552 -6.86765e-05 -1.17885e-19)
(0.0741296 -0.000137323 0)
(0.015585 -4.40413e-05 0)
(0.0289519 -6.83573e-05 1.60029e-19)
(0.0741296 -0.000137323 0)
(0.015585 -4.40412e-05 0)
(0.0289519 -6.83572e-05 -2.13263e-19)
(0.0741296 -0.000137323 0)
(0.015585 -4.40412e-05 0)
(0.0289519 -6.83572e-05 -3.23239e-19)
(0.0741296 -0.000137323 0)
(0.015585 -4.40412e-05 0)
(0.0289519 -6.83572e-05 2.09215e-19)
(0.0741296 -0.000137323 0)
(0.015585 -4.40412e-05 0)
(0.0289519 -6.83572e-05 -2.34338e-19)
(0.0741296 -0.000137323 0)
(0.015585 -4.40412e-05 0)
(0.0289519 -6.83572e-05 -2.67818e-19)
(0.0741296 -0.000137323 0)
(0.015585 -4.40412e-05 0)
(0.0289519 -6.83572e-05 1.19415e-19)
(0.0741296 -0.000137323 0)
(0.015585 -4.40412e-05 0)
(0.0289519 -6.83572e-05 -2.34423e-19)
(0.0741296 -0.000137323 0)
(0.015585 -4.40372e-05 0)
(0.0289518 -6.83551e-05 -6.33294e-19)
(0.0741297 -0.00013734 0)
(0.0155807 -4.36153e-05 0)
(0.0289497 -6.81455e-05 0)
(0.0519331 0.000131337 1.5325e-20)
(0.0491326 0.000116972 1.41917e-19)
(0.0496525 0.000118718 1.48285e-20)
(0.0550841 -0.000134372 1.47589e-20)
(0.0519392 -0.000128785 1.56257e-19)
(0.0525012 -0.000129908 -4.3496e-21)
(0.0547513 -0.000133618 -2.06494e-20)
(0.0516425 -0.000128075 -7.41455e-20)
(0.0521965 -0.000129036 -2.42429e-19)
(0.05442 -0.000132843 2.6719e-20)
(0.0513474 -0.000127371 -4.30071e-21)
(0.0516097 -0.000129794 3.20411e-22)
(0.0490117 1.00573e-05 2.10579e-19)
(0.0540901 -0.000132114 -3.25406e-20)
(0.0510536 -0.000126707 1.14572e-21)
(0.0513085 -0.000129105 -2.35115e-21)
(0.0516256 -0.000129682 2.12813e-19)
(0.0537596 -0.000126332 -2.62836e-20)
(0.0507592 -0.000121595 -1.49224e-19)
(0.0510067 -0.00012389 1.1212e-20)
(0.0513226 -0.000124447 1.60879e-19)
(0.0534279 -9.9383e-05 3.07741e-20)
(0.0504637 -9.7502e-05 -3.37737e-21)
(0.0507038 -9.91868e-05 1.07096e-22)
(0.0510184 -9.9641e-05 -1.29656e-21)
(0.0531041 -8.29446e-05 3.75409e-20)
(0.050175 -8.27686e-05 -1.50102e-19)
(0.050408 -8.41041e-05 1.68524e-19)
(0.0507192 -8.4381e-05 2.48239e-21)
(0.0527626 -7.23111e-05 -1.48625e-20)
(0.0498695 -7.32314e-05 -2.09463e-19)
(0.0500949 -7.42983e-05 -2.04411e-19)
(0.0500968 -7.5393e-05 2.28801e-19)
(0.0491648 1.05906e-05 1.28047e-18)
(0.0524772 -7.00448e-05 3.23075e-20)
(0.0496183 -7.11978e-05 -2.15881e-19)
(0.0498372 -7.21684e-05 1.63418e-19)
(0.0498355 -7.3193e-05 2.82277e-19)
(0.050155 -7.41109e-05 1.94673e-19)
(0.0521465 -8.04562e-05 8.12693e-20)
(0.049323 -8.04303e-05 -5.7335e-21)
(0.0495346 -8.16437e-05 5.60942e-22)
(0.0495297 -8.29178e-05 -4.62789e-22)
(0.049943 -9.02424e-05 -2.17975e-19)
(0.0518356 -9.77168e-05 1.61425e-22)
(0.0490453 -9.57327e-05 2.13531e-19)
(0.0492503 -9.73147e-05 -2.21928e-20)
(0.0495578 -9.77122e-05 -2.85623e-19)
)
;

boundaryField
{
    inlet
    {
        type            calculated;
        value           uniform (0 0 0);
    }
    outlet2
    {
        type            calculated;
        value           uniform (0 0 0);
    }
    outlet1
    {
        type            calculated;
        value           nonuniform List<vector> 0();
    }
    wall
    {
        type            calculated;
        value           uniform (0 0 0);
    }
    symmetryBottom
    {
        type            symmetry;
    }
    symmetryZ0
    {
        type            symmetry;
    }
    symmetryZ05
    {
        type            symmetry;
    }
    procBoundary1to0
    {
        type            processor;
        value           uniform (0 0 0);
    }
}


// ************************************************************************* //
