/*--------------------------------*- C++ -*----------------------------------*\
| =========                 |                                                 |
| \\      /  F ield         | OpenFOAM: The Open Source CFD Toolbox           |
|  \\    /   O peration     | Version:  2412                                  |
|   \\  /    A nd           | Website:  www.openfoam.com                      |
|    \\/     M anipulation  |                                                 |
\*---------------------------------------------------------------------------*/
FoamFile
{
    version     2.0;
    format      ascii;
    arch        "LSB;label=32;scalar=64";
    class       volScalarField;
    location    "6.6e-06";
    object      rho_dof0;
}
// * * * * * * * * * * * * * * * * * * * * * * * * * * * * * * * * * * * * * //

dimensions      [0 0 0 0 0 0 0];

internalField   nonuniform List<scalar> 
84
(
2.8111e-05
5.20738e-06
1.06372e-05
2.81212e-05
5.21472e-06
1.06445e-05
2.81186e-05
5.2138e-06
1.06431e-05
2.81186e-05
5.2138e-06
1.06431e-05
2.81186e-05
5.2138e-06
1.06431e-05
2.81186e-05
5.2138e-06
1.06431e-05
2.81186e-05
5.2138e-06
1.06431e-05
2.81186e-05
5.2138e-06
1.06431e-05
2.81186e-05
5.2138e-06
1.06431e-05
2.81186e-05
5.2138e-06
1.06431e-05
2.81186e-05
5.21378e-06
1.06431e-05
2.81187e-05
5.21209e-06
1.06423e-05
1.94562e-05
1.83269e-05
1.85363e-05
2.06775e-05
1.94072e-05
1.96342e-05
2.05472e-05
1.92918e-05
1.95156e-05
2.04175e-05
1.91771e-05
1.92868e-05
1.82722e-05
2.02884e-05
1.90629e-05
1.91696e-05
1.92928e-05
2.01593e-05
1.89487e-05
1.90524e-05
1.91752e-05
2.00305e-05
1.88349e-05
1.89356e-05
1.90578e-05
1.99044e-05
1.87234e-05
1.88212e-05
1.8942e-05
1.97711e-05
1.86056e-05
1.87003e-05
1.87004e-05
1.83354e-05
1.96584e-05
1.85056e-05
1.85978e-05
1.85965e-05
1.8721e-05
1.95288e-05
1.83909e-05
1.84801e-05
1.84777e-05
1.86408e-05
1.94072e-05
1.82831e-05
1.83696e-05
1.84889e-05
)
;

boundaryField
{
    inlet
    {
        type            calculated;
        value           uniform 2.81085e-05;
    }
    outlet2
    {
        type            calculated;
        value           uniform 2.81085e-05;
    }
    outlet1
    {
        type            calculated;
        value           nonuniform List<scalar> 0();
    }
    wall
    {
        type            calculated;
        value           uniform 2.81085e-05;
    }
    symmetryBottom
    {
        type            symmetry;
    }
    symmetryZ0
    {
        type            symmetry;
    }
    symmetryZ05
    {
        type            symmetry;
    }
    procBoundary1to0
    {
        type            processor;
        value           uniform 2.81085e-05;
    }
}


// ************************************************************************* //
