/*--------------------------------*- C++ -*----------------------------------*\
| =========                 |                                                 |
| \\      /  F ield         | OpenFOAM: The Open Source CFD Toolbox           |
|  \\    /   O peration     | Version:  2412                                  |
|   \\  /    A nd           | Website:  www.openfoam.com                      |
|    \\/     M anipulation  |                                                 |
\*---------------------------------------------------------------------------*/
FoamFile
{
    version     2.0;
    format      ascii;
    arch        "LSB;label=32;scalar=64";
    class       volVectorField;
    location    "6.6e-06";
    object      rhoU;
}
// * * * * * * * * * * * * * * * * * * * * * * * * * * * * * * * * * * * * * //

dimensions      [0 0 0 0 0 0 0];

internalField   nonuniform List<vector> 
84
(
(0.0741116 -6.65195e-07 0)
(0.0134515 -6.71541e-07 0)
(0.0279097 -5.67081e-07 -1.19455e-19)
(0.0741383 -0.00014284 0)
(0.0134707 -4.15732e-05 0)
(0.0279288 -6.9215e-05 -1.16324e-19)
(0.0741316 -0.000142197 0)
(0.0134683 -4.13569e-05 0)
(0.0279252 -6.8879e-05 1.58467e-19)
(0.0741316 -0.000142197 0)
(0.0134683 -4.13569e-05 0)
(0.0279252 -6.88789e-05 -2.13278e-19)
(0.0741316 -0.000142197 0)
(0.0134683 -4.13569e-05 0)
(0.0279252 -6.88789e-05 -3.24024e-19)
(0.0741316 -0.000142197 0)
(0.0134683 -4.13569e-05 0)
(0.0279252 -6.88789e-05 2.09215e-19)
(0.0741316 -0.000142197 0)
(0.0134683 -4.13569e-05 0)
(0.0279252 -6.88789e-05 -2.37474e-19)
(0.0741316 -0.000142197 0)
(0.0134683 -4.13569e-05 0)
(0.0279252 -6.88789e-05 -2.70165e-19)
(0.0741316 -0.000142197 0)
(0.0134683 -4.13569e-05 0)
(0.0279252 -6.88789e-05 1.17851e-19)
(0.0741316 -0.000142197 0)
(0.0134683 -4.13569e-05 0)
(0.0279252 -6.88789e-05 -2.37569e-19)
(0.0741316 -0.000142197 0)
(0.0134683 -4.13525e-05 0)
(0.0279252 -6.88768e-05 -6.37216e-19)
(0.0741318 -0.000142214 0)
(0.0134638 -4.09194e-05 0)
(0.0279231 -6.86722e-05 0)
(0.0511673 0.000135598 1.63439e-20)
(0.0481662 0.000119842 1.46967e-19)
(0.0487228 0.000121807 1.5385e-20)
(0.0544278 -0.0001391 1.57524e-20)
(0.0510479 -0.000132621 1.61258e-19)
(0.0516521 -0.000133895 -4.69003e-21)
(0.0540827 -0.00013828 -2.20001e-20)
(0.0507427 -0.000131854 -7.59383e-20)
(0.051338 -0.000132951 -2.4538e-19)
(0.0537393 -0.000137437 2.8533e-20)
(0.0504392 -0.000131094 -4.62885e-21)
(0.0507324 -0.000133676 3.58112e-22)
(0.0480461 1.08924e-05 2.10559e-19)
(0.0533974 -0.000136645 -3.17136e-20)
(0.0501369 -0.000130378 1.20833e-21)
(0.0504222 -0.000132932 -2.43192e-21)
(0.0507484 -0.000133554 2.13211e-19)
(0.0530549 -0.000130741 -2.80654e-20)
(0.0498342 -0.000125203 -1.5419e-19)
(0.0501115 -0.000127647 1.23942e-20)
(0.0504363 -0.000128248 1.68997e-19)
(0.0527111 -0.000102758 3.27683e-20)
(0.0495303 -0.000100372 -3.75852e-21)
(0.0497995 -0.000102158 2.03084e-22)
(0.0501229 -0.000102648 -1.3472e-21)
(0.0523758 -8.57642e-05 3.98482e-20)
(0.0492336 -8.52496e-05 -1.54414e-19)
(0.0494952 -8.66599e-05 1.73735e-19)
(0.049815 -8.69583e-05 2.65278e-21)
(0.052021 -7.4607e-05 -1.58643e-20)
(0.0489187 -7.53169e-05 -2.11357e-19)
(0.0491722 -7.64339e-05 -2.04404e-19)
(0.0491723 -7.75604e-05 2.32874e-19)
(0.048212 1.14617e-05 1.30947e-18)
(0.0517275 -7.20983e-05 3.43482e-20)
(0.0486625 -7.30856e-05 -2.14218e-19)
(0.0489089 -7.40944e-05 1.70632e-19)
(0.0489054 -7.51447e-05 2.87436e-19)
(0.0492352 -7.61456e-05 1.98755e-19)
(0.0513846 -8.29176e-05 8.66981e-20)
(0.0483586 -8.26018e-05 -6.4577e-21)
(0.0485972 -8.38743e-05 6.22503e-22)
(0.0485905 -8.51877e-05 -5.04784e-22)
(0.0490222 -9.31328e-05 -2.16629e-19)
(0.0510634 -0.000100727 1.66687e-22)
(0.0480738 -9.82657e-05 2.14127e-19)
(0.0483053 -9.99348e-05 -2.40561e-20)
(0.048621 -0.000100363 -2.90973e-19)
)
;

boundaryField
{
    inlet
    {
        type            calculated;
        value           uniform (0 0 0);
    }
    outlet2
    {
        type            calculated;
        value           uniform (0 0 0);
    }
    outlet1
    {
        type            calculated;
        value           nonuniform List<vector> 0();
    }
    wall
    {
        type            calculated;
        value           uniform (0 0 0);
    }
    symmetryBottom
    {
        type            symmetry;
    }
    symmetryZ0
    {
        type            symmetry;
    }
    symmetryZ05
    {
        type            symmetry;
    }
    procBoundary1to0
    {
        type            processor;
        value           uniform (0 0 0);
    }
}


// ************************************************************************* //
