/*--------------------------------*- C++ -*----------------------------------*\
| =========                 |                                                 |
| \\      /  F ield         | OpenFOAM: The Open Source CFD Toolbox           |
|  \\    /   O peration     | Version:  2412                                  |
|   \\  /    A nd           | Website:  www.openfoam.com                      |
|    \\/     M anipulation  |                                                 |
\*---------------------------------------------------------------------------*/
FoamFile
{
    version     2.0;
    format      ascii;
    arch        "LSB;label=32;scalar=64";
    class       volVectorField;
    location    "6.6e-06";
    object      U;
}
// * * * * * * * * * * * * * * * * * * * * * * * * * * * * * * * * * * * * * //

dimensions      [0 0 0 0 0 0 0];

internalField   nonuniform List<vector> 
84
(
(2636.39 -0.0236631 0)
(2583.17 -0.12896 0)
(2623.78 -0.053311 -1.123e-14)
(2636.39 -5.07943 0)
(2583.21 -7.97228 0)
(2623.79 -6.50245 -1.09281e-14)
(2636.39 -5.05704 0)
(2583.21 -7.93221 0)
(2623.79 -6.47171 1.48892e-14)
(2636.39 -5.05704 0)
(2583.21 -7.9322 0)
(2623.79 -6.47171 -2.00391e-14)
(2636.39 -5.05704 0)
(2583.21 -7.9322 0)
(2623.79 -6.47171 -3.04446e-14)
(2636.39 -5.05704 0)
(2583.21 -7.9322 0)
(2623.79 -6.47171 1.96574e-14)
(2636.39 -5.05704 0)
(2583.21 -7.9322 0)
(2623.79 -6.47171 -2.23125e-14)
(2636.39 -5.05704 0)
(2583.21 -7.9322 0)
(2623.79 -6.47171 -2.53841e-14)
(2636.39 -5.05704 0)
(2583.21 -7.9322 0)
(2623.79 -6.47171 1.1073e-14)
(2636.39 -5.05704 0)
(2583.21 -7.93219 0)
(2623.79 -6.47171 -2.23214e-14)
(2636.39 -5.05704 0)
(2583.21 -7.93138 0)
(2623.79 -6.47151 -5.98714e-14)
(2636.39 -5.05765 0)
(2583.2 -7.85086 0)
(2623.79 -6.45277 0)
(2629.88 6.96942 8.40037e-16)
(2628.17 6.53915 8.01921e-15)
(2628.51 6.57126 8.29991e-16)
(2632.23 -6.72712 7.61816e-16)
(2630.37 -6.8336 8.30921e-15)
(2630.72 -6.81944 -2.3887e-16)
(2632.12 -6.72989 -1.07071e-15)
(2630.27 -6.83473 -3.9363e-15)
(2630.62 -6.81258 -1.25736e-14)
(2632.02 -6.73131 1.39747e-15)
(2630.18 -6.83597 -2.41374e-16)
(2630.42 -6.93097 1.85677e-17)
(2629.47 0.596122 1.15235e-14)
(2631.91 -6.73509 -1.56314e-15)
(2630.08 -6.83937 6.33864e-17)
(2630.33 -6.93451 -1.26864e-16)
(2630.43 -6.92244 1.10513e-14)
(2631.78 -6.48538 -1.39218e-15)
(2629.95 -6.60746 -8.13724e-15)
(2630.19 -6.6998 6.50534e-16)
(2630.29 -6.68823 8.81335e-15)
(2631.53 -5.13007 1.63592e-15)
(2629.7 -5.32904 -1.99551e-16)
(2629.94 -5.395 1.0725e-17)
(2630.04 -5.38612 -7.06899e-17)
(2631.37 -4.30881 2.00198e-15)
(2629.53 -4.55311 -8.24714e-15)
(2629.77 -4.60439 9.23082e-15)
(2629.87 -4.59076 1.40047e-16)
(2631.17 -3.77354 -8.02401e-16)
(2629.24 -4.04807 -1.13598e-14)
(2629.49 -4.08732 -1.09305e-14)
(2629.47 -4.14751 1.24528e-14)
(2629.44 0.625112 7.14173e-14)
(2631.32 -3.66756 1.74725e-15)
(2629.61 -3.94938 -1.15759e-14)
(2629.83 -3.98405 9.17484e-15)
(2629.82 -4.04079 1.54564e-14)
(2629.94 -4.06738 1.06167e-14)
(2631.22 -4.24592 4.4395e-15)
(2629.48 -4.49144 -3.51135e-16)
(2629.7 -4.53862 3.3685e-17)
(2629.69 -4.6103 -2.73186e-17)
(2629.83 -4.99618 -1.16212e-14)
(2631.16 -5.19019 8.58895e-18)
(2629.41 -5.37468 1.17118e-14)
(2629.63 -5.44024 -1.30957e-15)
(2629.74 -5.42825 -1.57377e-14)
)
;

boundaryField
{
    inlet
    {
        type            calculated;
        value           uniform (0 0 0);
    }
    outlet2
    {
        type            calculated;
        value           uniform (0 0 0);
    }
    outlet1
    {
        type            calculated;
        value           nonuniform List<vector> 0();
    }
    wall
    {
        type            calculated;
        value           uniform (0 0 0);
    }
    symmetryBottom
    {
        type            symmetry;
    }
    symmetryZ0
    {
        type            symmetry;
    }
    symmetryZ05
    {
        type            symmetry;
    }
    procBoundary1to0
    {
        type            processor;
        value           uniform (0 0 0);
    }
}


// ************************************************************************* //
