/*--------------------------------*- C++ -*----------------------------------*\
| =========                 |                                                 |
| \\      /  F ield         | OpenFOAM: The Open Source CFD Toolbox           |
|  \\    /   O peration     | Version:  2412                                  |
|   \\  /    A nd           | Website:  www.openfoam.com                      |
|    \\/     M anipulation  |                                                 |
\*---------------------------------------------------------------------------*/
FoamFile
{
    version     2.0;
    format      ascii;
    arch        "LSB;label=32;scalar=64";
    class       volScalarField;
    location    "9.9e-06";
    object      E;
}
// * * * * * * * * * * * * * * * * * * * * * * * * * * * * * * * * * * * * * //

dimensions      [0 0 0 0 0 0 0];

internalField   nonuniform List<scalar> 
84
(
121.249
3.49309
14.6954
121.295
3.59091
13.9336
121.324
3.58183
14.0309
121.325
3.56989
14.1302
121.326
3.55798
14.2294
121.328
3.54612
14.3279
121.329
3.53432
14.4259
121.33
3.52257
14.5233
121.331
3.51087
14.6201
121.333
3.49922
14.7163
121.334
3.48758
14.8119
121.336
3.47585
14.9068
56.9452
52.9814
49.8331
61.3137
56.8966
53.5042
60.8192
56.4515
53.1523
60.2566
55.7548
56.722
46.8737
59.6911
55.2739
55.7631
52.1045
59.1315
54.7754
55.2421
51.7047
58.5769
54.2809
54.7336
51.233
58.0273
53.7909
54.2286
50.7925
57.4825
53.3107
53.565
53.9452
47.7281
56.9428
52.8289
53.0829
53.2447
49.8325
56.4079
52.3518
52.5954
52.7407
49.4457
55.8782
51.8746
52.257
49.0124
)
;

boundaryField
{
    inlet
    {
        type            calculated;
        value           uniform 0;
    }
    outlet2
    {
        type            calculated;
        value           uniform 0;
    }
    outlet1
    {
        type            calculated;
        value           nonuniform List<scalar> 0();
    }
    wall
    {
        type            calculated;
        value           uniform 0;
    }
    symmetryBottom
    {
        type            symmetry;
    }
    symmetryZ0
    {
        type            symmetry;
    }
    symmetryZ05
    {
        type            symmetry;
    }
    procBoundary1to0
    {
        type            processor;
        value           uniform 0;
    }
}


// ************************************************************************* //
