/*--------------------------------*- C++ -*----------------------------------*\
| =========                 |                                                 |
| \\      /  F ield         | OpenFOAM: The Open Source CFD Toolbox           |
|  \\    /   O peration     | Version:  2412                                  |
|   \\  /    A nd           | Website:  www.openfoam.com                      |
|    \\/     M anipulation  |                                                 |
\*---------------------------------------------------------------------------*/
FoamFile
{
    version     2.0;
    format      ascii;
    arch        "LSB;label=32;scalar=64";
    class       volScalarField;
    location    "9.9e-06";
    object      rho_dof0;
}
// * * * * * * * * * * * * * * * * * * * * * * * * * * * * * * * * * * * * * //

dimensions      [0 0 0 0 0 0 0];

internalField   nonuniform List<scalar> 
84
(
3.41549e-05
1.17803e-06
4.2766e-06
3.41678e-05
1.20514e-06
4.06458e-06
3.41759e-05
1.20273e-06
4.09167e-06
3.41763e-05
1.19945e-06
4.11925e-06
3.41766e-05
1.19617e-06
4.14681e-06
3.4177e-05
1.19292e-06
4.17419e-06
3.41773e-05
1.18967e-06
4.20141e-06
3.41776e-05
1.18644e-06
4.22847e-06
3.4178e-05
1.18323e-06
4.25536e-06
3.41783e-05
1.18002e-06
4.2821e-06
3.41786e-05
1.17683e-06
4.30867e-06
3.41791e-05
1.1736e-06
4.33506e-06
1.61927e-05
1.50896e-05
1.42198e-05
1.74189e-05
1.61904e-05
1.52536e-05
1.72799e-05
1.60651e-05
1.51538e-05
1.71219e-05
1.58707e-05
1.61377e-05
1.3392e-05
1.69632e-05
1.57352e-05
1.58696e-05
1.48594e-05
1.68061e-05
1.5595e-05
1.57232e-05
1.47465e-05
1.66503e-05
1.54559e-05
1.55802e-05
1.46135e-05
1.6496e-05
1.5318e-05
1.54381e-05
1.44891e-05
1.6343e-05
1.51827e-05
1.52528e-05
1.53577e-05
1.36287e-05
1.61914e-05
1.50471e-05
1.51171e-05
1.51614e-05
1.42187e-05
1.60411e-05
1.49128e-05
1.49799e-05
1.50196e-05
1.41093e-05
1.58923e-05
1.47786e-05
1.48833e-05
1.3987e-05
)
;

boundaryField
{
    inlet
    {
        type            calculated;
        value           uniform 2.81085e-05;
    }
    outlet2
    {
        type            calculated;
        value           uniform 2.81085e-05;
    }
    outlet1
    {
        type            calculated;
        value           nonuniform List<scalar> 0();
    }
    wall
    {
        type            calculated;
        value           uniform 2.81085e-05;
    }
    symmetryBottom
    {
        type            symmetry;
    }
    symmetryZ0
    {
        type            symmetry;
    }
    symmetryZ05
    {
        type            symmetry;
    }
    procBoundary1to0
    {
        type            processor;
        value           uniform 2.81085e-05;
    }
}


// ************************************************************************* //
