/*--------------------------------*- C++ -*----------------------------------*\
| =========                 |                                                 |
| \\      /  F ield         | OpenFOAM: The Open Source CFD Toolbox           |
|  \\    /   O peration     | Version:  2412                                  |
|   \\  /    A nd           | Website:  www.openfoam.com                      |
|    \\/     M anipulation  |                                                 |
\*---------------------------------------------------------------------------*/
FoamFile
{
    version     2.0;
    format      ascii;
    arch        "LSB;label=32;scalar=64";
    class       volVectorField;
    location    "9.9e-06";
    object      rhoU_dof0;
}
// * * * * * * * * * * * * * * * * * * * * * * * * * * * * * * * * * * * * * //

dimensions      [0 0 0 0 0 0 0];

internalField   nonuniform List<vector> 
84
(
(0.0902082 2.10073e-07 -4.32753e-21)
(0.00284932 -4.7396e-07 2.73001e-20)
(0.0111111 2.2171e-07 -1.21812e-19)
(0.0902421 -0.000282679 -4.57866e-21)
(0.00292165 -1.95194e-05 2.87566e-20)
(0.0105464 -4.16421e-05 -1.27658e-19)
(0.0902635 -0.000282747 6.01489e-21)
(0.00291506 -1.95597e-05 -3.76993e-20)
(0.0106183 -4.13661e-05 1.66271e-19)
(0.0902645 -0.00028276 -7.85572e-21)
(0.00290629 -1.95294e-05 4.93083e-20)
(0.0106917 -4.16295e-05 -2.20118e-19)
(0.0902654 -0.000282763 -1.39259e-20)
(0.00289753 -1.94975e-05 8.65498e-20)
(0.010765 -4.18993e-05 -3.77646e-19)
(0.0902663 -0.000282766 7.62805e-21)
(0.00288882 -1.94659e-05 -4.75105e-20)
(0.0108378 -4.21659e-05 2.08751e-19)
(0.0902672 -0.00028277 -1.02313e-20)
(0.00288014 -1.94344e-05 6.40426e-20)
(0.0109102 -4.24308e-05 -2.81992e-19)
(0.0902681 -0.000282773 -1.18729e-20)
(0.00287151 -1.9403e-05 7.432e-20)
(0.0109822 -4.26941e-05 -3.31602e-19)
(0.0902689 -0.000282776 4.41356e-21)
(0.00286291 -1.93717e-05 -2.75019e-20)
(0.0110537 -4.29559e-05 1.20897e-19)
(0.0902698 -0.000282779 -1.01216e-20)
(0.00285434 -1.93406e-05 6.40723e-20)
(0.0111248 -4.32161e-05 -2.8798e-19)
(0.0902707 -0.000282782 -2.61964e-20)
(0.00284579 -1.93094e-05 1.64933e-19)
(0.0111955 -4.34747e-05 -7.35439e-19)
(0.0902721 -0.000283041 1.06369e-23)
(0.00283716 -1.88702e-05 -1.87084e-22)
(0.0112657 -4.34316e-05 2.58604e-21)
(0.0425558 -3.41094e-06 -2.88874e-21)
(0.039625 -3.20358e-06 2.01524e-19)
(0.0373051 -3.05395e-06 -3.23225e-20)
(0.0458072 -0.000172341 -2.34619e-21)
(0.0425413 -0.000163163 2.02762e-19)
(0.0400418 -0.000152902 -3.71702e-20)
(0.0454397 -0.000174295 -1.20843e-20)
(0.0422103 -0.000164847 -7.02161e-20)
(0.0397791 -0.000156967 -2.75175e-19)
(0.0450218 -0.000172805 2.37521e-20)
(0.0416943 -0.000162038 -3.82628e-21)
(0.0424068 -0.000182816 -3.18837e-20)
(0.0351171 5.52227e-05 4.01836e-19)
(0.0446018 -0.000171203 -5.33534e-20)
(0.0413366 -0.000161387 2.53922e-21)
(0.0416961 -0.000165711 -3.0507e-20)
(0.0390007 -0.000150046 3.49156e-19)
(0.0441861 -0.000169641 -7.31786e-21)
(0.0409659 -0.000159992 -1.99327e-19)
(0.0413088 -0.000163814 -7.73476e-21)
(0.0387027 -0.000152751 2.37743e-19)
(0.0437741 -0.000168094 3.00782e-20)
(0.0405982 -0.000158586 -4.31017e-21)
(0.0409308 -0.000162341 -1.64339e-21)
(0.0383517 -0.000151453 -1.13777e-23)
(0.0433658 -0.00016656 5.34435e-20)
(0.0402339 -0.000157196 -2.18494e-19)
(0.0405553 -0.000160791 2.10482e-19)
(0.0380235 -0.000152118 1.16691e-21)
(0.0429611 -0.000165038 1.10682e-20)
(0.0398766 -0.000155866 -2.69698e-19)
(0.0400638 -0.000157977 -2.85234e-19)
(0.0403437 -0.000177427 1.61937e-19)
(0.0357476 5.39168e-05 1.85405e-18)
(0.0425601 -0.000163532 5.61737e-20)
(0.0395183 -0.000154467 -3.05822e-19)
(0.0397052 -0.000157332 1.8563e-19)
(0.0398239 -0.000160494 4.4205e-19)
(0.0373094 -0.000147917 3.06743e-19)
(0.0421627 -0.000162039 8.1338e-20)
(0.0391635 -0.000153107 -5.35519e-21)
(0.0393426 -0.000156006 -3.68025e-23)
(0.0394492 -0.000157335 2.15676e-20)
(0.037021 -0.000166568 -2.41521e-19)
(0.0417691 -0.000160539 -2.41212e-20)
(0.0388087 -0.000151694 2.94423e-19)
(0.0390893 -0.0001541 1.47862e-20)
(0.0366982 -0.000165712 -4.78051e-19)
)
;

boundaryField
{
    inlet
    {
        type            calculated;
        value           uniform (0.0741049 0 0);
    }
    outlet2
    {
        type            calculated;
        value           uniform (0.0741049 0 0);
    }
    outlet1
    {
        type            calculated;
        value           nonuniform List<vector> 0();
    }
    wall
    {
        type            calculated;
        value           uniform (0.0741049 0 0);
    }
    symmetryBottom
    {
        type            symmetry;
    }
    symmetryZ0
    {
        type            symmetry;
    }
    symmetryZ05
    {
        type            symmetry;
    }
    procBoundary1to0
    {
        type            processor;
        value           uniform (0.0741049 0 0);
    }
}


// ************************************************************************* //
