/*--------------------------------*- C++ -*----------------------------------*\
| =========                 |                                                 |
| \\      /  F ield         | OpenFOAM: The Open Source CFD Toolbox           |
|  \\    /   O peration     | Version:  2412                                  |
|   \\  /    A nd           | Website:  www.openfoam.com                      |
|    \\/     M anipulation  |                                                 |
\*---------------------------------------------------------------------------*/
FoamFile
{
    version     2.0;
    format      ascii;
    arch        "LSB;label=32;scalar=64";
    class       volScalarField;
    location    "9.8e-06";
    object      rho_dof0;
}
// * * * * * * * * * * * * * * * * * * * * * * * * * * * * * * * * * * * * * //

dimensions      [0 0 0 0 0 0 0];

internalField   nonuniform List<scalar> 
84
(
3.40492e-05
1.34022e-06
4.38011e-06
3.40619e-05
1.36676e-06
4.1713e-06
3.40698e-05
1.36445e-06
4.19802e-06
3.40701e-05
1.36125e-06
4.22518e-06
3.40704e-05
1.35806e-06
4.25233e-06
3.40708e-05
1.35488e-06
4.27929e-06
3.40711e-05
1.35172e-06
4.3061e-06
3.40714e-05
1.34857e-06
4.33275e-06
3.40717e-05
1.34543e-06
4.35925e-06
3.4072e-05
1.34231e-06
4.38559e-06
3.40724e-05
1.33919e-06
4.41176e-06
3.40729e-05
1.33605e-06
4.43777e-06
1.62728e-05
1.51846e-05
1.43321e-05
1.74922e-05
1.62809e-05
1.53635e-05
1.73538e-05
1.61561e-05
1.52633e-05
1.71967e-05
1.59639e-05
1.62252e-05
1.35131e-05
1.70389e-05
1.58289e-05
1.59598e-05
1.49706e-05
1.68827e-05
1.56892e-05
1.5814e-05
1.48576e-05
1.67279e-05
1.55506e-05
1.56717e-05
1.4725e-05
1.65744e-05
1.54132e-05
1.55302e-05
1.46007e-05
1.64223e-05
1.52785e-05
1.53469e-05
1.54495e-05
1.37455e-05
1.62715e-05
1.51434e-05
1.52117e-05
1.52547e-05
1.43312e-05
1.61221e-05
1.50096e-05
1.5075e-05
1.51135e-05
1.42217e-05
1.59741e-05
1.48758e-05
1.49777e-05
1.40995e-05
)
;

boundaryField
{
    inlet
    {
        type            calculated;
        value           uniform 2.81085e-05;
    }
    outlet2
    {
        type            calculated;
        value           uniform 2.81085e-05;
    }
    outlet1
    {
        type            calculated;
        value           nonuniform List<scalar> 0();
    }
    wall
    {
        type            calculated;
        value           uniform 2.81085e-05;
    }
    symmetryBottom
    {
        type            symmetry;
    }
    symmetryZ0
    {
        type            symmetry;
    }
    symmetryZ05
    {
        type            symmetry;
    }
    procBoundary1to0
    {
        type            processor;
        value           uniform 2.81085e-05;
    }
}


// ************************************************************************* //
