/*--------------------------------*- C++ -*----------------------------------*\
| =========                 |                                                 |
| \\      /  F ield         | OpenFOAM: The Open Source CFD Toolbox           |
|  \\    /   O peration     | Version:  2412                                  |
|   \\  /    A nd           | Website:  www.openfoam.com                      |
|    \\/     M anipulation  |                                                 |
\*---------------------------------------------------------------------------*/
FoamFile
{
    version     2.0;
    format      ascii;
    arch        "LSB;label=32;scalar=64";
    class       volScalarField;
    location    "9.8e-06";
    object      T;
}
// * * * * * * * * * * * * * * * * * * * * * * * * * * * * * * * * * * * * * //

dimensions      [0 0 0 0 0 0 0];

internalField   nonuniform List<scalar> 
84
(
200.062
146.084
196.963
200.017
147.515
198.913
200.047
147.301
199.017
200.047
146.987
199.06
200.047
146.671
199.102
200.047
146.354
199.143
200.047
146.036
199.183
200.047
145.718
199.221
200.047
145.398
199.258
200.047
145.078
199.294
200.047
144.755
199.328
200.048
144.437
199.363
203.775
203.602
203.479
200.045
199.999
199.89
200.038
199.994
199.895
200.039
199.984
199.997
199.742
200.039
199.984
200.012
199.831
200.038
199.984
200.007
199.883
200.038
199.984
200.007
199.885
200.038
199.984
200.006
199.892
200.038
199.985
199.996
199.99
199.782
200.038
199.985
199.996
200.011
199.83
200.038
199.985
199.995
200.012
199.803
200.038
199.985
200.008
199.869
)
;

boundaryField
{
    inlet
    {
        type            calculated;
        value           uniform 0;
    }
    outlet2
    {
        type            calculated;
        value           uniform 0;
    }
    outlet1
    {
        type            calculated;
        value           nonuniform List<scalar> 0();
    }
    wall
    {
        type            calculated;
        value           uniform 0;
    }
    symmetryBottom
    {
        type            symmetry;
    }
    symmetryZ0
    {
        type            symmetry;
    }
    symmetryZ05
    {
        type            symmetry;
    }
    procBoundary1to0
    {
        type            processor;
        value           uniform 0;
    }
}


// ************************************************************************* //
