/*--------------------------------*- C++ -*----------------------------------*\
| =========                 |                                                 |
| \\      /  F ield         | OpenFOAM: The Open Source CFD Toolbox           |
|  \\    /   O peration     | Version:  2412                                  |
|   \\  /    A nd           | Website:  www.openfoam.com                      |
|    \\/     M anipulation  |                                                 |
\*---------------------------------------------------------------------------*/
FoamFile
{
    version     2.0;
    format      ascii;
    arch        "LSB;label=32;scalar=64";
    class       volScalarField;
    location    "7.2e-06";
    object      E;
}
// * * * * * * * * * * * * * * * * * * * * * * * * * * * * * * * * * * * * * //

dimensions      [0 0 0 0 0 0 0];

internalField   nonuniform List<scalar> 
84
(
99.4411
12.1964
34.825
99.4825
12.2217
34.8519
99.472
12.2187
34.8466
99.472
12.2187
34.8466
99.472
12.2187
34.8466
99.472
12.2187
34.8466
99.472
12.2187
34.8466
99.472
12.2187
34.8466
99.472
12.2187
34.8466
99.472
12.2187
34.8466
99.472
12.2186
34.8466
99.4722
12.2123
34.844
66.5239
61.9203
62.779
71.2088
65.9929
66.9326
70.7117
65.5605
66.4856
70.2174
65.131
65.622
61.7757
69.7254
64.7035
65.1819
65.6427
69.2356
64.2777
64.7436
65.2023
68.7576
63.8614
64.3153
64.7719
68.2936
63.4569
63.8993
64.3504
67.8633
63.0765
63.509
63.5045
62.0193
67.2793
62.5811
62.997
62.9854
63.4533
66.8213
62.181
62.5856
62.5702
63.2017
66.3695
61.7868
62.1805
62.6254
)
;

boundaryField
{
    inlet
    {
        type            calculated;
        value           uniform 0;
    }
    outlet2
    {
        type            calculated;
        value           uniform 0;
    }
    outlet1
    {
        type            calculated;
        value           nonuniform List<scalar> 0();
    }
    wall
    {
        type            calculated;
        value           uniform 0;
    }
    symmetryBottom
    {
        type            symmetry;
    }
    symmetryZ0
    {
        type            symmetry;
    }
    symmetryZ05
    {
        type            symmetry;
    }
    procBoundary1to0
    {
        type            processor;
        value           uniform 0;
    }
}


// ************************************************************************* //
