/*--------------------------------*- C++ -*----------------------------------*\
| =========                 |                                                 |
| \\      /  F ield         | OpenFOAM: The Open Source CFD Toolbox           |
|  \\    /   O peration     | Version:  2412                                  |
|   \\  /    A nd           | Website:  www.openfoam.com                      |
|    \\/     M anipulation  |                                                 |
\*---------------------------------------------------------------------------*/
FoamFile
{
    version     2.0;
    format      ascii;
    arch        "LSB;label=32;scalar=64";
    class       volScalarField;
    location    "7.2e-06";
    object      rho_dof0;
}
// * * * * * * * * * * * * * * * * * * * * * * * * * * * * * * * * * * * * * //

dimensions      [0 0 0 0 0 0 0];

internalField   nonuniform List<scalar> 
84
(
2.81115e-05
3.66246e-06
9.93813e-06
2.81232e-05
3.66982e-06
9.94581e-06
2.81202e-05
3.66892e-06
9.94431e-06
2.81202e-05
3.66892e-06
9.94431e-06
2.81202e-05
3.66892e-06
9.94431e-06
2.81202e-05
3.66892e-06
9.94431e-06
2.81202e-05
3.66892e-06
9.94431e-06
2.81202e-05
3.66892e-06
9.94431e-06
2.81202e-05
3.66892e-06
9.94431e-06
2.81202e-05
3.66892e-06
9.94431e-06
2.81202e-05
3.6689e-06
9.9443e-06
2.81203e-05
3.66712e-06
9.94355e-06
1.8897e-05
1.76159e-05
1.78545e-05
2.01971e-05
1.8748e-05
1.90088e-05
2.00579e-05
1.86266e-05
1.88833e-05
1.99194e-05
1.8506e-05
1.86411e-05
1.75625e-05
1.97815e-05
1.83859e-05
1.85175e-05
1.86469e-05
1.96436e-05
1.82659e-05
1.8394e-05
1.85228e-05
1.9506e-05
1.81463e-05
1.82709e-05
1.83991e-05
1.93716e-05
1.80293e-05
1.81505e-05
1.82772e-05
1.92287e-05
1.7905e-05
1.80226e-05
1.80212e-05
1.76358e-05
1.911e-05
1.78012e-05
1.7916e-05
1.79131e-05
1.8045e-05
1.89715e-05
1.76806e-05
1.77919e-05
1.77878e-05
1.79649e-05
1.88424e-05
1.75679e-05
1.7676e-05
1.7801e-05
)
;

boundaryField
{
    inlet
    {
        type            calculated;
        value           uniform 2.81085e-05;
    }
    outlet2
    {
        type            calculated;
        value           uniform 2.81085e-05;
    }
    outlet1
    {
        type            calculated;
        value           nonuniform List<scalar> 0();
    }
    wall
    {
        type            calculated;
        value           uniform 2.81085e-05;
    }
    symmetryBottom
    {
        type            symmetry;
    }
    symmetryZ0
    {
        type            symmetry;
    }
    symmetryZ05
    {
        type            symmetry;
    }
    procBoundary1to0
    {
        type            processor;
        value           uniform 2.81085e-05;
    }
}


// ************************************************************************* //
