/*--------------------------------*- C++ -*----------------------------------*\
| =========                 |                                                 |
| \\      /  F ield         | OpenFOAM: The Open Source CFD Toolbox           |
|  \\    /   O peration     | Version:  2412                                  |
|   \\  /    A nd           | Website:  www.openfoam.com                      |
|    \\/     M anipulation  |                                                 |
\*---------------------------------------------------------------------------*/
FoamFile
{
    version     2.0;
    format      ascii;
    arch        "LSB;label=32;scalar=64";
    class       volVectorField;
    location    "7.2e-06";
    object      rhoU;
}
// * * * * * * * * * * * * * * * * * * * * * * * * * * * * * * * * * * * * * //

dimensions      [0 0 0 0 0 0 0];

internalField   nonuniform List<vector> 
84
(
(0.0741127 -7.70737e-07 0)
(0.0093672 -6.84025e-07 0)
(0.0260749 -5.92672e-07 -1.14775e-19)
(0.0741435 -0.000152318 0)
(0.00938636 -3.53512e-05 0)
(0.026095 -7.01334e-05 -1.13984e-19)
(0.0741358 -0.000151579 0)
(0.00938405 -3.51458e-05 0)
(0.0260911 -6.97643e-05 1.54563e-19)
(0.0741358 -0.000151579 0)
(0.00938405 -3.51457e-05 0)
(0.0260911 -6.97642e-05 -2.13309e-19)
(0.0741358 -0.000151579 0)
(0.00938405 -3.51457e-05 0)
(0.0260911 -6.97642e-05 -3.25594e-19)
(0.0741358 -0.000151579 0)
(0.00938405 -3.51457e-05 0)
(0.0260911 -6.97642e-05 2.09996e-19)
(0.0741358 -0.000151579 0)
(0.00938405 -3.51457e-05 0)
(0.0260911 -6.97642e-05 -2.42188e-19)
(0.0741358 -0.000151579 0)
(0.00938405 -3.51457e-05 0)
(0.0260911 -6.97642e-05 -2.73299e-19)
(0.0741358 -0.000151579 0)
(0.00938405 -3.51457e-05 0)
(0.0260911 -6.97642e-05 1.15503e-19)
(0.0741358 -0.000151579 0)
(0.00938405 -3.51457e-05 0)
(0.0260911 -6.97642e-05 -2.42302e-19)
(0.0741358 -0.00015158 0)
(0.009384 -3.51407e-05 0)
(0.0260911 -6.9762e-05 -6.4194e-19)
(0.0741359 -0.000151598 0)
(0.00937935 -3.46865e-05 0)
(0.0260891 -6.95699e-05 0)
(0.049687 0.000143693 1.83102e-20)
(0.0462836 0.000125011 1.55617e-19)
(0.0469181 0.000127463 1.64627e-20)
(0.0531575 -0.00014822 1.7667e-20)
(0.0493031 -0.000139771 1.71123e-19)
(0.049997 -0.00014139 -5.3878e-21)
(0.0527887 -0.000147264 -2.46057e-20)
(0.0489819 -0.000138888 -8.20474e-20)
(0.0496651 -0.000140298 -2.53912e-19)
(0.0524218 -0.000146278 3.21178e-20)
(0.0486628 -0.000138014 -5.32413e-21)
(0.0490239 -0.000140945 4.42112e-22)
(0.0461687 1.26165e-05 2.1052e-19)
(0.0520567 -0.000145353 -3.26196e-20)
(0.0483451 -0.000137191 1.31992e-21)
(0.0486969 -0.000140087 -2.58437e-21)
(0.0490393 -0.000140798 2.11377e-19)
(0.051691 -0.00013924 -3.15904e-20)
(0.048027 -0.000131925 -1.62656e-19)
(0.0483695 -0.000134698 1.48597e-20)
(0.0487103 -0.000135387 1.83932e-19)
(0.0513238 -0.000109245 3.67844e-20)
(0.0477074 -0.000105715 -4.57872e-21)
(0.0480407 -0.000107721 4.18111e-22)
(0.0483799 -0.000108284 -1.44572e-21)
(0.0509664 -9.1193e-05 4.44564e-20)
(0.0473962 -8.98842e-05 -1.66908e-19)
(0.0477205 -9.14591e-05 1.85458e-19)
(0.0480556 -9.18008e-05 2.99896e-21)
(0.050586 -7.89851e-05 -1.77932e-20)
(0.0470637 -7.91813e-05 -2.13777e-19)
(0.0473785 -8.04082e-05 -2.04345e-19)
(0.0473743 -8.15929e-05 2.39588e-19)
(0.0463609 1.32573e-05 1.3634e-18)
(0.0502773 -7.5962e-05 3.84561e-20)
(0.0467988 -7.65405e-05 -2.18781e-19)
(0.0471055 -7.7632e-05 1.83563e-19)
(0.0470977 -7.87283e-05 2.9475e-19)
(0.047447 -7.99038e-05 2.06922e-19)
(0.0499108 -8.75796e-05 9.74966e-20)
(0.0464791 -8.6589e-05 -8.04243e-21)
(0.0467766 -8.79901e-05 7.64271e-22)
(0.0467656 -8.93765e-05 -5.92943e-22)
(0.047234 -9.86088e-05 -2.17975e-19)
(0.0495698 -0.000106428 1.76695e-22)
(0.0461814 -0.000102899 2.15287e-19)
(0.0464707 -0.000104758 -2.77643e-20)
(0.0468013 -0.000105247 -2.99026e-19)
)
;

boundaryField
{
    inlet
    {
        type            calculated;
        value           uniform (0 0 0);
    }
    outlet2
    {
        type            calculated;
        value           uniform (0 0 0);
    }
    outlet1
    {
        type            calculated;
        value           nonuniform List<vector> 0();
    }
    wall
    {
        type            calculated;
        value           uniform (0 0 0);
    }
    symmetryBottom
    {
        type            symmetry;
    }
    symmetryZ0
    {
        type            symmetry;
    }
    symmetryZ05
    {
        type            symmetry;
    }
    procBoundary1to0
    {
        type            processor;
        value           uniform (0 0 0);
    }
}


// ************************************************************************* //
