/*--------------------------------*- C++ -*----------------------------------*\
| =========                 |                                                 |
| \\      /  F ield         | OpenFOAM: The Open Source CFD Toolbox           |
|  \\    /   O peration     | Version:  2412                                  |
|   \\  /    A nd           | Website:  www.openfoam.com                      |
|    \\/     M anipulation  |                                                 |
\*---------------------------------------------------------------------------*/
FoamFile
{
    version     2.0;
    format      ascii;
    arch        "LSB;label=32;scalar=64";
    class       volScalarField;
    location    "4.2e-06";
    object      rho;
}
// * * * * * * * * * * * * * * * * * * * * * * * * * * * * * * * * * * * * * //

dimensions      [0 0 0 0 0 0 0];

internalField   nonuniform List<scalar> 
84
(
2.81096e-05
1.2181e-05
1.46471e-05
2.81142e-05
1.21866e-05
1.46522e-05
2.81131e-05
1.21859e-05
1.46514e-05
2.81131e-05
1.21859e-05
1.46514e-05
2.81131e-05
1.21859e-05
1.46514e-05
2.81131e-05
1.21859e-05
1.46514e-05
2.81131e-05
1.21859e-05
1.46514e-05
2.81131e-05
1.21859e-05
1.46514e-05
2.81131e-05
1.21859e-05
1.46514e-05
2.81131e-05
1.21859e-05
1.46514e-05
2.81131e-05
1.21859e-05
1.46514e-05
2.81131e-05
1.21846e-05
1.46505e-05
2.1985e-05
2.1436e-05
2.1549e-05
2.28443e-05
2.2241e-05
2.23597e-05
2.27541e-05
2.21565e-05
2.22739e-05
2.26642e-05
2.20722e-05
2.21099e-05
2.1392e-05
2.25745e-05
2.19881e-05
2.20243e-05
2.21139e-05
2.24849e-05
2.19041e-05
2.19387e-05
2.20282e-05
2.23954e-05
2.18204e-05
2.18534e-05
2.19426e-05
2.23071e-05
2.17376e-05
2.17691e-05
2.18577e-05
2.22158e-05
2.16521e-05
2.1682e-05
2.16849e-05
2.14203e-05
2.21333e-05
2.15747e-05
2.16033e-05
2.1605e-05
2.16942e-05
2.20435e-05
2.14906e-05
2.15176e-05
2.15182e-05
2.16241e-05
2.1957e-05
2.14094e-05
2.14349e-05
2.15227e-05
)
;

boundaryField
{
    inlet
    {
        type            calculated;
        value           uniform 0;
    }
    outlet2
    {
        type            calculated;
        value           uniform 0;
    }
    outlet1
    {
        type            calculated;
        value           nonuniform List<scalar> 0();
    }
    wall
    {
        type            calculated;
        value           uniform 0;
    }
    symmetryBottom
    {
        type            symmetry;
    }
    symmetryZ0
    {
        type            symmetry;
    }
    symmetryZ05
    {
        type            symmetry;
    }
    procBoundary1to0
    {
        type            processor;
        value           uniform 0;
    }
}


// ************************************************************************* //
