/*--------------------------------*- C++ -*----------------------------------*\
| =========                 |                                                 |
| \\      /  F ield         | OpenFOAM: The Open Source CFD Toolbox           |
|  \\    /   O peration     | Version:  2412                                  |
|   \\  /    A nd           | Website:  www.openfoam.com                      |
|    \\/     M anipulation  |                                                 |
\*---------------------------------------------------------------------------*/
FoamFile
{
    version     2.0;
    format      ascii;
    arch        "LSB;label=32;scalar=64";
    class       volScalarField;
    location    "4.2e-06";
    object      T;
}
// * * * * * * * * * * * * * * * * * * * * * * * * * * * * * * * * * * * * * //

dimensions      [0 0 0 0 0 0 0];

internalField   nonuniform List<scalar> 
84
(
200.006
199.675
200.064
199.986
199.629
200.027
199.98
199.623
200.021
199.98
199.623
200.021
199.98
199.623
200.021
199.98
199.623
200.021
199.98
199.623
200.021
199.98
199.623
200.021
199.98
199.623
200.021
199.98
199.623
200.021
199.98
199.623
200.021
199.981
199.61
200.014
202.609
202.495
202.502
200.015
199.996
199.999
200.015
199.996
199.999
200.015
199.996
199.999
200.013
200.017
199.998
200.001
200.001
200.452
200.414
200.423
200.422
202.335
202.228
202.268
202.265
204.108
203.934
204.004
203.999
211.336
210.848
211.048
211.218
199.276
195.619
195.749
195.68
195.615
195.494
198.965
198.985
198.97
198.956
199.01
199.575
199.572
199.568
199.568
)
;

boundaryField
{
    inlet
    {
        type            calculated;
        value           uniform 0;
    }
    outlet2
    {
        type            calculated;
        value           uniform 0;
    }
    outlet1
    {
        type            calculated;
        value           nonuniform List<scalar> 0();
    }
    wall
    {
        type            calculated;
        value           uniform 0;
    }
    symmetryBottom
    {
        type            symmetry;
    }
    symmetryZ0
    {
        type            symmetry;
    }
    symmetryZ05
    {
        type            symmetry;
    }
    procBoundary1to0
    {
        type            processor;
        value           uniform 0;
    }
}


// ************************************************************************* //
