/*--------------------------------*- C++ -*----------------------------------*\
| =========                 |                                                 |
| \\      /  F ield         | OpenFOAM: The Open Source CFD Toolbox           |
|  \\    /   O peration     | Version:  2412                                  |
|   \\  /    A nd           | Website:  www.openfoam.com                      |
|    \\/     M anipulation  |                                                 |
\*---------------------------------------------------------------------------*/
FoamFile
{
    version     2.0;
    format      ascii;
    arch        "LSB;label=32;scalar=64";
    class       volVectorField;
    location    "4.2e-06";
    object      U;
}
// * * * * * * * * * * * * * * * * * * * * * * * * * * * * * * * * * * * * * //

dimensions      [0 0 0 0 0 0 0];

internalField   nonuniform List<vector> 
84
(
(2636.39 -0.0105581 0)
(2618.9 -0.0415508 0)
(2626.59 -0.0287571 -7.46186e-15)
(2636.39 -3.54893 0)
(2618.9 -4.40063 0)
(2626.59 -4.20661 -7.24601e-15)
(2636.39 -3.53846 0)
(2618.9 -4.38681 0)
(2626.59 -4.1936 9.75043e-15)
(2636.39 -3.53846 0)
(2618.9 -4.38681 0)
(2626.59 -4.1936 -1.25785e-14)
(2636.39 -3.53846 0)
(2618.9 -4.38681 0)
(2626.59 -4.1936 -2.02485e-14)
(2636.39 -3.53846 0)
(2618.9 -4.38681 0)
(2626.59 -4.1936 1.2308e-14)
(2636.39 -3.53846 0)
(2618.9 -4.38681 0)
(2626.59 -4.1936 -1.50828e-14)
(2636.39 -3.53846 0)
(2618.9 -4.38681 0)
(2626.59 -4.1936 -1.73182e-14)
(2636.39 -3.53846 0)
(2618.9 -4.38681 0)
(2626.59 -4.1936 7.19222e-15)
(2636.39 -3.53846 0)
(2618.9 -4.38681 0)
(2626.59 -4.1936 -1.49251e-14)
(2636.39 -3.53847 0)
(2618.9 -4.38665 0)
(2626.59 -4.1935 -3.80481e-14)
(2636.39 -3.53893 0)
(2618.9 -4.36046 0)
(2626.59 -4.17892 0)
(2631.99 4.41836 3.64119e-16)
(2631.24 4.2438 4.8958e-15)
(2631.36 4.25077 4.91139e-16)
(2633.46 -4.28213 3.37481e-16)
(2632.64 -4.34785 5.01636e-15)
(2632.77 -4.34243 -9.56544e-17)
(2633.39 -4.28339 -4.89831e-16)
(2632.58 -4.34861 -2.37627e-15)
(2632.7 -4.34012 -9.61144e-15)
(2633.33 -4.28423 6.3115e-16)
(2632.52 -4.3494 -1.07605e-16)
(2632.58 -4.41065 5.71989e-18)
(2632.03 0.227266 7.80342e-15)
(2633.26 -4.28596 -1.44104e-15)
(2632.46 -4.35102 2.3393e-17)
(2632.52 -4.41233 -7.75368e-17)
(2632.59 -4.40733 7.83015e-15)
(2633.18 -4.09874 -6.25258e-16)
(2632.37 -4.17193 -4.96162e-15)
(2632.44 -4.23102 1.97399e-16)
(2632.5 -4.22629 5.21301e-15)
(2633.03 -3.25993 7.61116e-16)
(2632.23 -3.36388 -5.84109e-17)
(2632.29 -3.40928 -1.47789e-17)
(2632.36 -3.40556 -4.17163e-17)
(2632.93 -2.73365 9.56564e-16)
(2632.13 -2.8568 -5.00804e-15)
(2632.19 -2.89403 5.37699e-15)
(2632.26 -2.88856 6.23326e-17)
(2632.84 -2.42967 -3.50493e-16)
(2632 -2.56365 -7.55139e-15)
(2632.06 -2.59533 -7.15527e-15)
(2632.06 -2.633 8.51754e-15)
(2632.01 0.240402 4.70228e-14)
(2632.88 -2.39952 8.2157e-16)
(2632.12 -2.53455 -7.52346e-15)
(2632.18 -2.56485 5.4133e-15)
(2632.18 -2.6013 1.1248e-14)
(2632.25 -2.61025 6.85127e-15)
(2632.83 -2.74365 1.99897e-15)
(2632.06 -2.86512 -9.04529e-17)
(2632.12 -2.90141 1.24404e-17)
(2632.12 -2.94536 -9.54412e-18)
(2632.2 -3.09308 -7.84012e-15)
(2632.79 -3.33849 5.43288e-18)
(2632.02 -3.43534 7.43034e-15)
(2632.08 -3.4812 -4.97505e-16)
(2632.15 -3.47626 -1.12861e-14)
)
;

boundaryField
{
    inlet
    {
        type            calculated;
        value           uniform (0 0 0);
    }
    outlet2
    {
        type            calculated;
        value           uniform (0 0 0);
    }
    outlet1
    {
        type            calculated;
        value           nonuniform List<vector> 0();
    }
    wall
    {
        type            calculated;
        value           uniform (0 0 0);
    }
    symmetryBottom
    {
        type            symmetry;
    }
    symmetryZ0
    {
        type            symmetry;
    }
    symmetryZ05
    {
        type            symmetry;
    }
    procBoundary1to0
    {
        type            processor;
        value           uniform (0 0 0);
    }
}


// ************************************************************************* //
