/*--------------------------------*- C++ -*----------------------------------*\
| =========                 |                                                 |
| \\      /  F ield         | OpenFOAM: The Open Source CFD Toolbox           |
|  \\    /   O peration     | Version:  2412                                  |
|   \\  /    A nd           | Website:  www.openfoam.com                      |
|    \\/     M anipulation  |                                                 |
\*---------------------------------------------------------------------------*/
FoamFile
{
    version     2.0;
    format      ascii;
    arch        "LSB;label=32;scalar=64";
    class       volScalarField;
    location    "1.07831e-06";
    object      E;
}
// * * * * * * * * * * * * * * * * * * * * * * * * * * * * * * * * * * * * * //

dimensions      [0 0 0 0 0 0 0];

internalField   nonuniform List<scalar> 
625
(
101.307
83.5887
83.5888
101.31
83.5913
83.5913
101.307
83.5888
83.5888
101.307
83.5888
83.5888
101.307
83.5888
83.5888
101.307
83.5888
83.5888
101.307
83.5888
83.5888
101.307
83.5888
83.5888
101.307
83.5888
83.5888
101.307
83.5888
83.5888
101.307
83.5888
83.5888
101.307
83.5888
83.5888
101.307
83.5888
83.5888
101.307
83.5888
83.5888
101.307
83.5888
83.5888
101.307
83.5888
83.5888
101.307
83.5888
83.5888
101.307
83.5888
83.5888
101.307
83.5888
83.5888
101.307
83.5888
83.5888
101.307
83.5888
83.5888
101.307
83.5888
83.5888
101.307
83.5888
83.5888
101.307
83.5888
83.5889
101.308
83.5851
83.5852
86.0844
86.0831
86.0818
86.0805
86.0791
86.0777
86.0764
86.075
86.0736
86.0721
86.0707
86.0692
86.0678
86.0663
86.0648
86.0633
86.0618
86.0602
86.0587
86.0571
86.0555
86.152
88.3271
88.3413
88.3557
88.3703
88.3852
88.4002
88.4155
88.431
88.4468
88.4628
88.479
88.4955
88.5122
88.5292
88.5464
88.5639
88.5817
88.5998
88.6182
88.6369
88.6559
88.7552
88.2092
88.2224
88.2357
88.2493
88.263
88.277
88.2911
88.3055
88.32
88.3348
88.3498
88.365
88.3805
88.3961
88.4121
88.4282
88.4447
88.4614
88.4783
88.4955
88.513
88.6122
88.1231
88.1356
88.1484
88.1613
88.1744
88.1877
88.2012
88.2149
88.2288
88.2428
88.2572
88.2717
88.2864
88.3014
88.3166
88.332
88.3477
88.3636
88.3797
88.3962
88.4129
88.5119
88.037
88.0489
88.0611
88.0734
88.0858
88.0985
88.1113
88.1244
88.1376
88.151
88.1646
88.1784
88.1925
88.2067
88.2212
88.2358
88.2508
88.2659
88.2813
88.2969
88.3128
88.4118
87.951
87.9623
87.9738
87.9855
87.9974
88.0094
88.0216
88.0339
88.0465
88.0592
88.0722
88.0853
88.0986
88.1121
88.1258
88.1398
88.1539
88.1683
88.1829
88.1978
88.2129
88.3117
87.865
87.8758
87.8867
87.8978
87.909
87.9203
87.9319
87.9436
87.9555
87.9675
87.9798
87.9922
88.0048
88.0176
88.0306
88.0438
88.0572
88.0708
88.0847
88.0987
88.113
88.2118
87.7792
87.7893
87.7996
87.8101
87.8206
87.8314
87.8423
87.8533
87.8646
87.8759
87.8875
87.8992
87.9111
87.9232
87.9355
87.9479
87.9606
87.9734
87.9865
87.9998
88.0132
88.1119
87.6934
87.7029
87.7126
87.7224
87.7324
87.7425
87.7528
87.7632
87.7737
87.7844
87.7953
87.8063
87.8175
87.8289
87.8404
87.8521
87.864
87.8761
87.8884
87.9009
87.9136
88.0121
87.6077
87.6166
87.6257
87.6349
87.6442
87.6537
87.6633
87.6731
87.6829
87.693
87.7032
87.7135
87.724
87.7346
87.7455
87.7564
87.7676
87.7789
87.7904
87.8021
87.814
87.9125
87.5222
87.5306
87.539
87.5476
87.5563
87.5652
87.5741
87.5832
87.5925
87.6018
87.6113
87.621
87.6308
87.6407
87.6508
87.6611
87.6715
87.682
87.6928
87.7037
87.7148
87.8131
87.4369
87.4446
87.4525
87.4604
87.4685
87.4767
87.4851
87.4935
87.5021
87.5108
87.5196
87.5286
87.5376
87.5469
87.5562
87.5658
87.5754
87.5852
87.5952
87.6054
87.6156
87.7139
87.3516
87.3587
87.366
87.3733
87.3808
87.3884
87.3961
87.4039
87.4118
87.4198
87.4279
87.4362
87.4446
87.4531
87.4618
87.4706
87.4795
87.4885
87.4978
87.5071
87.5166
87.6148
87.2663
87.2729
87.2796
87.2863
87.2932
87.3001
87.3071
87.3143
87.3215
87.3289
87.3364
87.344
87.3516
87.3595
87.3674
87.3754
87.3836
87.3919
87.4004
87.409
87.4177
87.5157
87.1812
87.1872
87.1932
87.1994
87.2056
87.2119
87.2183
87.2248
87.2314
87.2381
87.2449
87.2518
87.2588
87.2659
87.2731
87.2804
87.2879
87.2954
87.3031
87.3109
87.3188
87.4168
87.0961
87.1015
87.1069
87.1125
87.1181
87.1238
87.1295
87.1354
87.1413
87.1474
87.1535
87.1597
87.166
87.1724
87.1789
87.1855
87.1922
87.199
87.2059
87.213
87.2201
87.3179
87.0111
87.0159
87.0208
87.0257
87.0307
87.0357
87.0409
87.0461
87.0514
87.0567
87.0622
87.0677
87.0733
87.079
87.0848
87.0907
87.0966
87.1027
87.1088
87.1151
87.1215
87.2192
86.9262
86.9304
86.9346
86.939
86.9433
86.9478
86.9523
86.9568
86.9615
86.9662
86.971
86.9758
86.9807
86.9857
86.9908
86.9959
87.0012
87.0065
87.0119
87.0173
87.0229
87.1206
86.8413
86.845
86.8486
86.8523
86.8561
86.8599
86.8638
86.8677
86.8717
86.8757
86.8798
86.884
86.8882
86.8925
86.8969
86.9013
86.9058
86.9103
86.915
86.9197
86.9245
87.022
86.7566
86.7596
86.7626
86.7657
86.7689
86.7721
86.7753
86.7786
86.7819
86.7853
86.7888
86.7922
86.7958
86.7994
86.803
86.8067
86.8105
86.8143
86.8182
86.8221
86.8261
86.9236
86.6719
86.6743
86.6768
86.6793
86.6818
86.6844
86.687
86.6896
86.6923
86.695
86.6978
86.7006
86.7034
86.7063
86.7093
86.7123
86.7153
86.7184
86.7215
86.7247
86.7279
86.8252
86.5872
86.5891
86.591
86.5928
86.5948
86.5967
86.5987
86.6007
86.6027
86.6048
86.6069
86.609
86.6112
86.6134
86.6156
86.6179
86.6202
86.6225
86.6249
86.6273
86.6298
86.727
86.5027
86.504
86.5052
86.5065
86.5078
86.5092
86.5105
86.5119
86.5133
86.5147
86.5161
86.5176
86.519
86.5205
86.5221
86.5236
86.5252
86.5268
86.5284
86.5301
86.5317
86.6289
86.4182
86.4189
86.4196
86.4203
86.421
86.4217
86.4224
86.4231
86.4239
86.4246
86.4254
86.4262
86.427
86.4278
86.4286
86.4294
86.4303
86.4311
86.432
86.4329
86.4338
86.5308
86.3305
86.3305
86.3306
86.3306
86.3307
86.3308
86.3309
86.3309
86.331
86.3311
86.3312
86.3312
86.3313
86.3314
86.3315
86.3316
86.3317
86.3318
86.3319
86.3319
86.332
86.4292
)
;

boundaryField
{
    inlet
    {
        type            calculated;
        value           uniform 0;
    }
    outlet2
    {
        type            calculated;
        value           uniform 0;
    }
    outlet1
    {
        type            calculated;
        value           uniform 0;
    }
    wall
    {
        type            calculated;
        value           uniform 0;
    }
    symmetryBottom
    {
        type            symmetry;
    }
    symmetryZ0
    {
        type            symmetry;
    }
    symmetryZ05
    {
        type            symmetry;
    }
}


// ************************************************************************* //
