/*--------------------------------*- C++ -*----------------------------------*\
| =========                 |                                                 |
| \\      /  F ield         | OpenFOAM: The Open Source CFD Toolbox           |
|  \\    /   O peration     | Version:  2412                                  |
|   \\  /    A nd           | Website:  www.openfoam.com                      |
|    \\/     M anipulation  |                                                 |
\*---------------------------------------------------------------------------*/
FoamFile
{
    version     2.0;
    format      ascii;
    arch        "LSB;label=32;scalar=64";
    class       volScalarField;
    location    "1.07831e-06";
    object      E_dof0;
}
// * * * * * * * * * * * * * * * * * * * * * * * * * * * * * * * * * * * * * //

dimensions      [0 0 0 0 0 0 0];

internalField   nonuniform List<scalar> 
625
(
101.307
83.5887
83.5888
101.31
83.5913
83.5913
101.307
83.5888
83.5888
101.307
83.5888
83.5888
101.307
83.5888
83.5888
101.307
83.5888
83.5888
101.307
83.5888
83.5888
101.307
83.5888
83.5888
101.307
83.5888
83.5888
101.307
83.5888
83.5888
101.307
83.5888
83.5888
101.307
83.5888
83.5888
101.307
83.5888
83.5888
101.307
83.5888
83.5888
101.307
83.5888
83.5888
101.307
83.5888
83.5888
101.307
83.5888
83.5888
101.307
83.5888
83.5888
101.307
83.5888
83.5888
101.307
83.5888
83.5888
101.307
83.5888
83.5888
101.307
83.5888
83.5888
101.307
83.5888
83.5888
101.307
83.5888
83.5889
101.308
83.5851
83.5852
86.0846
86.0833
86.0819
86.0806
86.0792
86.0779
86.0765
86.0751
86.0737
86.0723
86.0708
86.0694
86.0679
86.0664
86.065
86.0634
86.0619
86.0604
86.0588
86.0573
86.0557
86.153
88.3272
88.3414
88.3558
88.3705
88.3853
88.4004
88.4157
88.4312
88.4469
88.4629
88.4791
88.4956
88.5123
88.5293
88.5466
88.5641
88.5819
88.6
88.6184
88.6371
88.6561
88.7562
88.2093
88.2225
88.2359
88.2494
88.2632
88.2771
88.2913
88.3056
88.3202
88.3349
88.3499
88.3652
88.3806
88.3963
88.4122
88.4284
88.4448
88.4615
88.4785
88.4957
88.5132
88.6132
88.1232
88.1358
88.1485
88.1614
88.1745
88.1878
88.2013
88.215
88.2289
88.243
88.2573
88.2718
88.2866
88.3015
88.3167
88.3322
88.3478
88.3637
88.3799
88.3963
88.413
88.513
88.0371
88.0491
88.0612
88.0735
88.086
88.0986
88.1115
88.1245
88.1377
88.1511
88.1648
88.1786
88.1926
88.2069
88.2213
88.236
88.2509
88.2661
88.2815
88.2971
88.313
88.4128
87.9511
87.9625
87.974
87.9857
87.9975
88.0095
88.0217
88.0341
88.0466
88.0594
88.0723
88.0854
88.0987
88.1123
88.126
88.1399
88.1541
88.1685
88.1831
88.198
88.213
88.3128
87.8652
87.8759
87.8868
87.8979
87.9091
87.9205
87.932
87.9437
87.9556
87.9677
87.9799
87.9924
88.005
88.0178
88.0308
88.044
88.0574
88.071
88.0848
88.0989
88.1132
88.2128
87.7793
87.7895
87.7998
87.8102
87.8208
87.8315
87.8424
87.8535
87.8647
87.8761
87.8876
87.8994
87.9113
87.9234
87.9356
87.9481
87.9608
87.9736
87.9867
87.9999
88.0134
88.113
87.6935
87.7031
87.7127
87.7226
87.7325
87.7426
87.7529
87.7633
87.7738
87.7846
87.7954
87.8065
87.8177
87.829
87.8406
87.8523
87.8642
87.8763
87.8886
87.9011
87.9138
88.0132
87.6078
87.6168
87.6258
87.635
87.6444
87.6538
87.6634
87.6732
87.6831
87.6931
87.7033
87.7136
87.7241
87.7348
87.7456
87.7566
87.7678
87.7791
87.7906
87.8023
87.8142
87.9135
87.5224
87.5307
87.5392
87.5478
87.5565
87.5653
87.5743
87.5834
87.5926
87.602
87.6115
87.6211
87.6309
87.6409
87.651
87.6612
87.6716
87.6822
87.693
87.7039
87.715
87.8142
87.437
87.4447
87.4526
87.4606
87.4687
87.4769
87.4852
87.4936
87.5022
87.5109
87.5197
87.5287
87.5378
87.547
87.5564
87.5659
87.5756
87.5854
87.5954
87.6055
87.6158
87.715
87.3517
87.3588
87.3661
87.3735
87.3809
87.3885
87.3962
87.404
87.4119
87.4199
87.4281
87.4364
87.4448
87.4533
87.4619
87.4707
87.4796
87.4887
87.4979
87.5073
87.5168
87.6158
87.2665
87.273
87.2797
87.2864
87.2933
87.3002
87.3073
87.3144
87.3217
87.329
87.3365
87.3441
87.3518
87.3596
87.3675
87.3756
87.3838
87.3921
87.4005
87.4091
87.4178
87.5168
87.1813
87.1873
87.1933
87.1995
87.2057
87.212
87.2184
87.2249
87.2315
87.2382
87.245
87.2519
87.2589
87.266
87.2733
87.2806
87.288
87.2956
87.3033
87.3111
87.319
87.4178
87.0962
87.1016
87.1071
87.1126
87.1182
87.1239
87.1297
87.1355
87.1415
87.1475
87.1536
87.1598
87.1662
87.1726
87.1791
87.1857
87.1924
87.1992
87.2061
87.2131
87.2203
87.319
87.0112
87.016
87.0209
87.0258
87.0308
87.0359
87.041
87.0462
87.0515
87.0569
87.0623
87.0679
87.0735
87.0792
87.085
87.0908
87.0968
87.1029
87.109
87.1153
87.1216
87.2203
86.9263
86.9305
86.9348
86.9391
86.9435
86.9479
86.9524
86.957
86.9616
86.9663
86.9711
86.9759
86.9809
86.9859
86.9909
86.9961
87.0013
87.0066
87.012
87.0175
87.0231
87.1216
86.8415
86.8451
86.8487
86.8524
86.8562
86.86
86.8639
86.8678
86.8718
86.8759
86.88
86.8841
86.8884
86.8926
86.897
86.9014
86.9059
86.9105
86.9151
86.9199
86.9247
87.0231
86.7567
86.7597
86.7628
86.7659
86.769
86.7722
86.7755
86.7787
86.7821
86.7855
86.7889
86.7924
86.7959
86.7995
86.8032
86.8069
86.8106
86.8145
86.8184
86.8223
86.8263
86.9246
86.672
86.6744
86.6769
86.6794
86.6819
86.6845
86.6871
86.6898
86.6924
86.6952
86.6979
86.7007
86.7036
86.7065
86.7094
86.7124
86.7155
86.7185
86.7217
86.7248
86.7281
86.8263
86.5874
86.5892
86.5911
86.593
86.5949
86.5969
86.5988
86.6008
86.6029
86.605
86.6071
86.6092
86.6114
86.6136
86.6158
86.618
86.6204
86.6227
86.6251
86.6275
86.6299
86.7281
86.5028
86.5041
86.5054
86.5066
86.508
86.5093
86.5106
86.512
86.5134
86.5148
86.5163
86.5177
86.5192
86.5207
86.5222
86.5238
86.5253
86.5269
86.5286
86.5302
86.5319
86.6299
86.4184
86.419
86.4197
86.4204
86.4211
86.4218
86.4226
86.4233
86.424
86.4248
86.4256
86.4263
86.4271
86.4279
86.4288
86.4296
86.4305
86.4313
86.4322
86.4331
86.434
86.5319
86.3306
86.3306
86.3307
86.3308
86.3309
86.3309
86.331
86.3311
86.3311
86.3312
86.3313
86.3314
86.3315
86.3316
86.3316
86.3317
86.3318
86.3319
86.332
86.3321
86.3322
86.4302
)
;

boundaryField
{
    inlet
    {
        type            calculated;
        value           uniform 99.4306;
    }
    outlet2
    {
        type            calculated;
        value           uniform 99.4306;
    }
    outlet1
    {
        type            calculated;
        value           uniform 99.4306;
    }
    wall
    {
        type            calculated;
        value           uniform 99.4306;
    }
    symmetryBottom
    {
        type            symmetry;
    }
    symmetryZ0
    {
        type            symmetry;
    }
    symmetryZ05
    {
        type            symmetry;
    }
}


// ************************************************************************* //
