/*--------------------------------*- C++ -*----------------------------------*\
| =========                 |                                                 |
| \\      /  F ield         | OpenFOAM: The Open Source CFD Toolbox           |
|  \\    /   O peration     | Version:  2412                                  |
|   \\  /    A nd           | Website:  www.openfoam.com                      |
|    \\/     M anipulation  |                                                 |
\*---------------------------------------------------------------------------*/
FoamFile
{
    version     2.0;
    format      ascii;
    arch        "LSB;label=32;scalar=64";
    class       volScalarField;
    location    "1.07831e-06";
    object      E_dof2;
}
// * * * * * * * * * * * * * * * * * * * * * * * * * * * * * * * * * * * * * //

dimensions      [0 0 0 0 0 0 0];

internalField   nonuniform List<scalar> 
625
(
0.0140301
0.0250241
-0.00013633
-0.0103021
0.00286423
-0.000572896
-0.00218701
0.010214
-0.000572072
-0.0022196
0.010184
-0.000572074
-0.00221951
0.0101841
-0.000572074
-0.00221951
0.0101841
-0.000572074
-0.00221951
0.0101841
-0.000572074
-0.00221951
0.0101841
-0.000572074
-0.00221951
0.0101841
-0.000572074
-0.00221951
0.0101841
-0.000572074
-0.00221951
0.0101841
-0.000572074
-0.00221951
0.0101841
-0.000572074
-0.00221951
0.0101841
-0.000572074
-0.00221951
0.0101841
-0.000572074
-0.00221951
0.0101841
-0.000572074
-0.00221951
0.0101841
-0.000572074
-0.00221951
0.0101841
-0.000572074
-0.00221951
0.0101841
-0.000572074
-0.00221951
0.0101841
-0.000572074
-0.00221951
0.0101841
-0.000572074
-0.00221951
0.0101841
-0.000572074
-0.00221951
0.0101841
-0.000572073
-0.0022195
0.010184
-0.000570815
-0.00222264
0.0102288
0.000533637
-0.000782254
-0.000824198
-0.00104422
6.79051
6.83687
6.88386
6.93151
6.97982
7.0288
7.07848
7.12887
7.17997
7.23181
7.28441
7.33777
7.39192
7.44687
7.50265
7.55926
7.61674
7.67509
7.73434
7.79452
7.85563
4.02614e-05
-0.197558
-0.19964
-0.20176
-0.203921
-0.206123
-0.208367
-0.210655
-0.212988
-0.215366
-0.217792
-0.220267
-0.222791
-0.225368
-0.227996
-0.23068
-0.233419
-0.236216
-0.239073
-0.241991
-0.244971
-0.248017
-0.000674496
-0.103566
-0.104324
-0.105093
-0.105873
-0.106665
-0.107469
-0.108285
-0.109113
-0.109955
-0.110809
-0.111677
-0.112558
-0.113454
-0.114363
-0.115288
-0.116227
-0.117182
-0.118152
-0.119139
-0.120142
-0.121163
-0.000685128
-0.104415
-0.105175
-0.105946
-0.106728
-0.107522
-0.108328
-0.109146
-0.109976
-0.110819
-0.111675
-0.112545
-0.113427
-0.114324
-0.115235
-0.116161
-0.117101
-0.118057
-0.119029
-0.120016
-0.12102
-0.122041
-0.000684424
-0.105303
-0.106067
-0.106842
-0.107628
-0.108425
-0.109235
-0.110056
-0.11089
-0.111737
-0.112597
-0.11347
-0.114356
-0.115257
-0.116172
-0.117101
-0.118045
-0.119005
-0.11998
-0.120971
-0.121979
-0.123004
-0.000683843
-0.106206
-0.106973
-0.107751
-0.108541
-0.109342
-0.110155
-0.110981
-0.111818
-0.112669
-0.113532
-0.114409
-0.1153
-0.116204
-0.117123
-0.118056
-0.119004
-0.119967
-0.120946
-0.121941
-0.122953
-0.123981
-0.000683262
-0.107127
-0.107898
-0.10868
-0.109474
-0.110279
-0.111096
-0.111926
-0.112767
-0.113622
-0.11449
-0.11537
-0.116265
-0.117173
-0.118096
-0.119033
-0.119986
-0.120953
-0.121937
-0.122936
-0.123952
-0.124984
-0.000682681
-0.108067
-0.108842
-0.109629
-0.110426
-0.111236
-0.112058
-0.112891
-0.113737
-0.114596
-0.115468
-0.116353
-0.117252
-0.118165
-0.119092
-0.120034
-0.120991
-0.121963
-0.122951
-0.123955
-0.124975
-0.126013
-0.000682101
-0.109026
-0.109806
-0.110596
-0.111399
-0.112213
-0.113039
-0.113877
-0.114728
-0.115591
-0.116468
-0.117358
-0.118262
-0.119179
-0.120111
-0.121058
-0.12202
-0.122997
-0.12399
-0.124998
-0.126024
-0.127066
-0.000681521
-0.109988
-0.110773
-0.111568
-0.112376
-0.113194
-0.114025
-0.114868
-0.115724
-0.116593
-0.117474
-0.118369
-0.119278
-0.120201
-0.121138
-0.12209
-0.123057
-0.124039
-0.125037
-0.126051
-0.127082
-0.12813
-0.0006807
-0.110373
-0.111158
-0.111954
-0.112762
-0.113581
-0.114413
-0.115256
-0.116113
-0.116982
-0.117864
-0.118759
-0.119668
-0.120592
-0.121529
-0.122481
-0.123449
-0.124431
-0.125429
-0.126444
-0.127475
-0.128523
-0.000680355
-0.110743
-0.111528
-0.112324
-0.113132
-0.113952
-0.114783
-0.115627
-0.116483
-0.117352
-0.118234
-0.119129
-0.120038
-0.120961
-0.121898
-0.12285
-0.123817
-0.124799
-0.125796
-0.12681
-0.127841
-0.128888
-0.000680693
-0.11112
-0.111905
-0.112702
-0.11351
-0.114329
-0.115161
-0.116005
-0.116861
-0.11773
-0.118612
-0.119507
-0.120416
-0.121339
-0.122275
-0.123227
-0.124193
-0.125175
-0.126173
-0.127186
-0.128216
-0.129262
-0.000680928
-0.111504
-0.11229
-0.113087
-0.113895
-0.114715
-0.115547
-0.116391
-0.117247
-0.118116
-0.118998
-0.119893
-0.120802
-0.121725
-0.122662
-0.123613
-0.12458
-0.125561
-0.126558
-0.127571
-0.128601
-0.129647
-0.000681163
-0.111896
-0.112682
-0.113479
-0.114288
-0.115108
-0.115941
-0.116785
-0.117642
-0.118511
-0.119393
-0.120289
-0.121198
-0.12212
-0.123057
-0.124009
-0.124975
-0.125957
-0.126954
-0.127967
-0.128996
-0.130042
-0.000681397
-0.112295
-0.113082
-0.113879
-0.114689
-0.115509
-0.116342
-0.117187
-0.118044
-0.118914
-0.119796
-0.120692
-0.121601
-0.122525
-0.123462
-0.124413
-0.12538
-0.126362
-0.127358
-0.128371
-0.129401
-0.130446
-0.00068163
-0.112701
-0.113488
-0.114287
-0.115097
-0.115918
-0.116751
-0.117597
-0.118454
-0.119325
-0.120208
-0.121104
-0.122014
-0.122937
-0.123875
-0.124827
-0.125794
-0.126776
-0.127773
-0.128786
-0.129815
-0.130861
-0.000681863
-0.113114
-0.113902
-0.114702
-0.115512
-0.116335
-0.117169
-0.118015
-0.118873
-0.119744
-0.120628
-0.121525
-0.122435
-0.123359
-0.124297
-0.12525
-0.126217
-0.127199
-0.128197
-0.12921
-0.13024
-0.131286
-0.000682095
-0.113535
-0.114324
-0.115124
-0.115936
-0.116759
-0.117594
-0.11844
-0.119299
-0.120171
-0.121056
-0.121953
-0.122864
-0.123789
-0.124728
-0.125681
-0.126649
-0.127632
-0.12863
-0.129644
-0.130674
-0.13172
-0.000682326
-0.113962
-0.114752
-0.115554
-0.116366
-0.11719
-0.118026
-0.118874
-0.119734
-0.120606
-0.121492
-0.12239
-0.123302
-0.124228
-0.125167
-0.126121
-0.12709
-0.128074
-0.129073
-0.130087
-0.131118
-0.132165
-0.000682556
-0.114397
-0.115188
-0.11599
-0.116804
-0.117629
-0.118466
-0.119315
-0.120176
-0.12105
-0.121936
-0.122836
-0.123749
-0.124675
-0.125616
-0.126571
-0.12754
-0.128525
-0.129524
-0.13054
-0.131571
-0.132619
-0.000682784
-0.114838
-0.115631
-0.116435
-0.117249
-0.118076
-0.118914
-0.119764
-0.120626
-0.121501
-0.122389
-0.123289
-0.124203
-0.125131
-0.126073
-0.127029
-0.127999
-0.128985
-0.129985
-0.131002
-0.132034
-0.133083
-0.000683012
-0.115287
-0.116081
-0.116886
-0.117702
-0.11853
-0.119369
-0.120221
-0.121084
-0.12196
-0.122849
-0.123751
-0.124667
-0.125595
-0.126538
-0.127496
-0.128467
-0.129454
-0.130456
-0.131473
-0.132507
-0.133557
-0.000683237
-0.1157
-0.116495
-0.117301
-0.118118
-0.118947
-0.119787
-0.120639
-0.121504
-0.12238
-0.12327
-0.124173
-0.125089
-0.126018
-0.126962
-0.12792
-0.128892
-0.129879
-0.130881
-0.1319
-0.132934
-0.133984
-0.00068351
-0.126267
-0.127135
-0.128015
-0.128907
-0.129812
-0.130729
-0.13166
-0.132604
-0.133561
-0.134533
-0.135518
-0.136519
-0.137534
-0.138564
-0.13961
-0.140672
-0.14175
-0.142844
-0.143956
-0.145085
-0.146232
-0.000695825
)
;

boundaryField
{
    inlet
    {
        type            calculated;
        value           uniform 0;
    }
    outlet2
    {
        type            calculated;
        value           uniform 0;
    }
    outlet1
    {
        type            calculated;
        value           uniform 0;
    }
    wall
    {
        type            calculated;
        value           uniform 0;
    }
    symmetryBottom
    {
        type            symmetry;
    }
    symmetryZ0
    {
        type            symmetry;
    }
    symmetryZ05
    {
        type            symmetry;
    }
}


// ************************************************************************* //
