/*--------------------------------*- C++ -*----------------------------------*\
| =========                 |                                                 |
| \\      /  F ield         | OpenFOAM: The Open Source CFD Toolbox           |
|  \\    /   O peration     | Version:  2412                                  |
|   \\  /    A nd           | Website:  www.openfoam.com                      |
|    \\/     M anipulation  |                                                 |
\*---------------------------------------------------------------------------*/
FoamFile
{
    version     2.0;
    format      ascii;
    arch        "LSB;label=32;scalar=64";
    class       volScalarField;
    location    "1.07831e-06";
    object      E_dof3;
}
// * * * * * * * * * * * * * * * * * * * * * * * * * * * * * * * * * * * * * //

dimensions      [0 0 0 0 0 0 0];

internalField   nonuniform List<scalar> 
625
(
0.828921
0.730069
0.622678
0.828941
0.730087
0.622694
0.828941
0.730087
0.622694
0.828941
0.730087
0.622694
0.828941
0.730087
0.622694
0.828941
0.730087
0.622694
0.828941
0.730087
0.622694
0.828941
0.730087
0.622694
0.828941
0.730087
0.622694
0.828941
0.730087
0.622694
0.828941
0.730087
0.622694
0.828941
0.730087
0.622694
0.828941
0.730087
0.622694
0.828941
0.730087
0.622694
0.828941
0.730087
0.622694
0.828941
0.730087
0.622694
0.828941
0.730087
0.622694
0.828941
0.730087
0.622694
0.828941
0.730087
0.622694
0.828941
0.730087
0.622694
0.828941
0.730087
0.622694
0.828941
0.730087
0.622694
0.828941
0.730087
0.622693
0.828941
0.730087
0.621823
0.829147
0.730248
0.728956
0.75178
0.751776
0.751771
0.751766
0.751762
0.751757
0.751752
0.751747
0.751742
0.751737
0.751732
0.751727
0.751722
0.751716
0.751711
0.751705
0.7517
0.751694
0.751688
0.751682
0.751676
0.78411
0.770398
0.770524
0.770651
0.77078
0.770911
0.771044
0.771179
0.771316
0.771454
0.771595
0.771738
0.771883
0.77203
0.77218
0.772331
0.772485
0.772642
0.772801
0.772963
0.773127
0.773293
0.806865
0.769726
0.769847
0.76997
0.770094
0.77022
0.770347
0.770477
0.770609
0.770742
0.770878
0.771015
0.771155
0.771296
0.77144
0.771586
0.771734
0.771885
0.772038
0.772193
0.772351
0.772512
0.806028
0.769055
0.769171
0.769289
0.769408
0.769529
0.769652
0.769777
0.769903
0.770031
0.770161
0.770293
0.770427
0.770564
0.770702
0.770842
0.770984
0.771129
0.771276
0.771425
0.771577
0.771731
0.805202
0.768384
0.768496
0.768609
0.768723
0.768839
0.768957
0.769076
0.769198
0.769321
0.769446
0.769572
0.769701
0.769831
0.769964
0.770099
0.770235
0.770374
0.770515
0.770658
0.770804
0.770952
0.804376
0.767714
0.767821
0.767929
0.768039
0.76815
0.768262
0.768377
0.768493
0.768611
0.76873
0.768852
0.768975
0.7691
0.769227
0.769356
0.769486
0.769619
0.769754
0.769892
0.770031
0.770172
0.803552
0.767044
0.767146
0.76725
0.767354
0.767461
0.767569
0.767678
0.767789
0.767901
0.768016
0.768132
0.768249
0.768369
0.76849
0.768613
0.768738
0.768865
0.768994
0.769126
0.769259
0.769394
0.802728
0.766375
0.766472
0.766571
0.766671
0.766772
0.766875
0.766979
0.767085
0.767193
0.767302
0.767412
0.767525
0.767639
0.767754
0.767872
0.767991
0.768112
0.768235
0.76836
0.768487
0.768616
0.801904
0.765707
0.765799
0.765893
0.765988
0.766084
0.766182
0.766282
0.766382
0.766484
0.766588
0.766693
0.7668
0.766909
0.767019
0.767131
0.767244
0.767359
0.767477
0.767596
0.767716
0.767839
0.801082
0.765038
0.765126
0.765215
0.765305
0.765397
0.76549
0.765584
0.765679
0.765776
0.765875
0.765975
0.766076
0.766179
0.766284
0.76639
0.766498
0.766607
0.766718
0.766831
0.766946
0.767062
0.80026
0.764359
0.764442
0.764526
0.764612
0.764698
0.764786
0.764875
0.764966
0.765058
0.765151
0.765245
0.765341
0.765438
0.765537
0.765638
0.76574
0.765843
0.765948
0.766055
0.766164
0.766274
0.799427
0.763681
0.763759
0.763838
0.763919
0.764001
0.764083
0.764167
0.764253
0.764339
0.764427
0.764516
0.764606
0.764698
0.764791
0.764886
0.764982
0.76508
0.765179
0.765279
0.765382
0.765486
0.798595
0.763003
0.763076
0.763151
0.763227
0.763303
0.763381
0.76346
0.76354
0.763621
0.763704
0.763787
0.763872
0.763959
0.764046
0.764135
0.764225
0.764317
0.76441
0.764505
0.764601
0.764698
0.797763
0.762325
0.762394
0.762464
0.762535
0.762606
0.762679
0.762753
0.762828
0.762904
0.762981
0.763059
0.763139
0.76322
0.763301
0.763385
0.763469
0.763555
0.763642
0.76373
0.76382
0.763912
0.796932
0.761648
0.761712
0.761777
0.761843
0.76191
0.761978
0.762047
0.762116
0.762187
0.762259
0.762332
0.762406
0.762481
0.762557
0.762635
0.762713
0.762793
0.762874
0.762957
0.76304
0.763125
0.796102
0.760972
0.761031
0.761091
0.761153
0.761214
0.761277
0.761341
0.761406
0.761471
0.761538
0.761605
0.761674
0.761743
0.761814
0.761886
0.761958
0.762032
0.762108
0.762184
0.762261
0.76234
0.795273
0.760296
0.760351
0.760406
0.760462
0.760519
0.760577
0.760636
0.760695
0.760755
0.760817
0.760879
0.760942
0.761006
0.761071
0.761137
0.761204
0.761272
0.761341
0.761412
0.761483
0.761555
0.794444
0.759621
0.75967
0.759721
0.759772
0.759825
0.759877
0.759931
0.759985
0.76004
0.760096
0.760153
0.760211
0.760269
0.760329
0.760389
0.76045
0.760513
0.760576
0.76064
0.760705
0.760771
0.793616
0.758946
0.758991
0.759037
0.759083
0.75913
0.759178
0.759227
0.759276
0.759326
0.759377
0.759428
0.75948
0.759533
0.759587
0.759642
0.759697
0.759754
0.759811
0.759869
0.759928
0.759988
0.792789
0.758271
0.758312
0.758353
0.758394
0.758437
0.75848
0.758523
0.758567
0.758612
0.758657
0.758704
0.75875
0.758798
0.758846
0.758895
0.758945
0.758995
0.759047
0.759099
0.759152
0.759205
0.791963
0.757597
0.757633
0.757669
0.757706
0.757744
0.757782
0.75782
0.757859
0.757899
0.757939
0.75798
0.758021
0.758063
0.758106
0.758149
0.758193
0.758238
0.758283
0.758329
0.758376
0.758423
0.791137
0.756924
0.756955
0.756987
0.757019
0.757051
0.757084
0.757117
0.757151
0.757186
0.757221
0.757256
0.757292
0.757329
0.757366
0.757403
0.757442
0.75748
0.75752
0.75756
0.757601
0.757642
0.790312
0.756251
0.756277
0.756304
0.756331
0.756359
0.756387
0.756415
0.756444
0.756474
0.756503
0.756533
0.756564
0.756595
0.756627
0.756659
0.756691
0.756724
0.756758
0.756792
0.756826
0.756861
0.789488
0.755579
0.755601
0.755623
0.755645
0.755668
0.755691
0.755714
0.755738
0.755762
0.755787
0.755812
0.755837
0.755862
0.755888
0.755915
0.755942
0.755969
0.755996
0.756024
0.756053
0.756082
0.788665
0.755079
0.755097
0.755116
0.755135
0.755154
0.755173
0.755193
0.755213
0.755233
0.755254
0.755275
0.755296
0.755317
0.755339
0.755362
0.755384
0.755407
0.75543
0.755454
0.755478
0.755502
0.788025
)
;

boundaryField
{
    inlet
    {
        type            calculated;
        value           uniform 0;
    }
    outlet2
    {
        type            calculated;
        value           uniform 0;
    }
    outlet1
    {
        type            calculated;
        value           uniform 0;
    }
    wall
    {
        type            calculated;
        value           uniform 0;
    }
    symmetryBottom
    {
        type            symmetry;
    }
    symmetryZ0
    {
        type            symmetry;
    }
    symmetryZ05
    {
        type            symmetry;
    }
}


// ************************************************************************* //
