/*--------------------------------*- C++ -*----------------------------------*\
| =========                 |                                                 |
| \\      /  F ield         | OpenFOAM: The Open Source CFD Toolbox           |
|  \\    /   O peration     | Version:  2412                                  |
|   \\  /    A nd           | Website:  www.openfoam.com                      |
|    \\/     M anipulation  |                                                 |
\*---------------------------------------------------------------------------*/
FoamFile
{
    version     2.0;
    format      ascii;
    arch        "LSB;label=32;scalar=64";
    class       volScalarField;
    location    "1.07831e-06";
    object      E_dof1;
}
// * * * * * * * * * * * * * * * * * * * * * * * * * * * * * * * * * * * * * //

dimensions      [0 0 0 0 0 0 0];

internalField   nonuniform List<scalar> 
625
(
45.8523
-2.67916e-06
-0.0250539
45.8531
-2.67912e-06
-0.0031796
45.8531
-2.67917e-06
-0.0105303
45.8531
-2.67917e-06
-0.0105004
45.8531
-2.67917e-06
-0.0105005
45.8531
-2.67917e-06
-0.0105005
45.8531
-2.67917e-06
-0.0105005
45.8531
-2.67917e-06
-0.0105005
45.8531
-2.67917e-06
-0.0105005
45.8531
-2.67917e-06
-0.0105005
45.8531
-2.67917e-06
-0.0105005
45.8531
-2.67917e-06
-0.0105005
45.8531
-2.67917e-06
-0.0105005
45.8531
-2.67917e-06
-0.0105005
45.8531
-2.67917e-06
-0.0105005
45.8531
-2.67917e-06
-0.0105005
45.8531
-2.67917e-06
-0.0105005
45.8531
-2.67917e-06
-0.0105005
45.8531
-2.67917e-06
-0.0105005
45.8531
-2.67917e-06
-0.0105005
45.8531
-2.67917e-06
-0.0105005
45.8531
-2.67917e-06
-0.0105005
45.8531
-2.67917e-06
-0.0104998
45.8532
-2.67917e-06
-0.0107319
45.8637
-2.68038e-06
-0.00100288
-0.110379
-0.111138
-0.111908
-0.112689
-0.11348
-0.114283
-0.115098
-0.115924
-0.116761
-0.117612
-0.118474
-0.119349
-0.120238
-0.12114
-0.122055
-0.122984
-0.123928
-0.124886
-0.125859
-0.126847
-0.127851
-7.86286
-0.113137
-0.113935
-0.114744
-0.115565
-0.116397
-0.117242
-0.118099
-0.118969
-0.119851
-0.120747
-0.121656
-0.122579
-0.123516
-0.124467
-0.125434
-0.126415
-0.127412
-0.128424
-0.129453
-0.130499
-0.131562
0.249171
-0.113036
-0.113833
-0.11464
-0.115459
-0.11629
-0.117134
-0.117989
-0.118857
-0.119738
-0.120632
-0.121539
-0.12246
-0.123395
-0.124345
-0.125309
-0.126289
-0.127284
-0.128294
-0.129321
-0.130365
-0.131425
0.122142
-0.112936
-0.113731
-0.114537
-0.115355
-0.116185
-0.117026
-0.11788
-0.118746
-0.119626
-0.120518
-0.121424
-0.122343
-0.123277
-0.124224
-0.125187
-0.126164
-0.127157
-0.128166
-0.129191
-0.130232
-0.13129
0.123012
-0.112836
-0.11363
-0.114435
-0.115251
-0.116079
-0.116919
-0.117771
-0.118636
-0.119514
-0.120404
-0.121308
-0.122226
-0.123158
-0.124104
-0.125064
-0.12604
-0.127031
-0.128038
-0.12906
-0.1301
-0.131156
0.123965
-0.112736
-0.113528
-0.114332
-0.115147
-0.115973
-0.116812
-0.117663
-0.118526
-0.119402
-0.120291
-0.121193
-0.122109
-0.123039
-0.123983
-0.124942
-0.125916
-0.126905
-0.127909
-0.12893
-0.129967
-0.131021
0.124934
-0.112637
-0.113427
-0.114229
-0.115043
-0.115868
-0.116705
-0.117554
-0.118416
-0.11929
-0.120177
-0.121078
-0.121992
-0.12292
-0.123863
-0.12482
-0.125791
-0.126778
-0.127781
-0.1288
-0.129835
-0.130887
0.125927
-0.112537
-0.113326
-0.114127
-0.114939
-0.115762
-0.116598
-0.117445
-0.118305
-0.119178
-0.120064
-0.120963
-0.121875
-0.122802
-0.123742
-0.124697
-0.125667
-0.126653
-0.127653
-0.12867
-0.129703
-0.130753
0.126946
-0.112437
-0.113225
-0.114024
-0.114835
-0.115657
-0.116491
-0.117337
-0.118195
-0.119066
-0.119951
-0.120848
-0.121759
-0.122683
-0.123622
-0.124575
-0.125543
-0.126526
-0.127525
-0.12854
-0.129571
-0.130618
0.12799
-0.112338
-0.113124
-0.113922
-0.114731
-0.115552
-0.116384
-0.117229
-0.118085
-0.118955
-0.119837
-0.120733
-0.121642
-0.122565
-0.123502
-0.124453
-0.125419
-0.126401
-0.127397
-0.12841
-0.129439
-0.130484
0.129044
-0.112237
-0.113022
-0.113818
-0.114626
-0.115445
-0.116276
-0.117119
-0.117974
-0.118842
-0.119723
-0.120616
-0.121524
-0.122445
-0.12338
-0.12433
-0.125294
-0.126273
-0.127268
-0.128278
-0.129305
-0.130348
0.129399
-0.112136
-0.11292
-0.113714
-0.114521
-0.115338
-0.116168
-0.117009
-0.117863
-0.118729
-0.119608
-0.1205
-0.121406
-0.122325
-0.123258
-0.124206
-0.125168
-0.126146
-0.127138
-0.128147
-0.129172
-0.130213
0.129694
-0.112035
-0.112817
-0.113611
-0.114415
-0.115232
-0.116059
-0.116899
-0.117751
-0.118616
-0.119493
-0.120384
-0.121288
-0.122205
-0.123137
-0.124082
-0.125043
-0.126018
-0.127009
-0.128016
-0.129038
-0.130077
0.129997
-0.111934
-0.112715
-0.113507
-0.11431
-0.115125
-0.115951
-0.11679
-0.11764
-0.118503
-0.119379
-0.120268
-0.12117
-0.122085
-0.123015
-0.123959
-0.124918
-0.125891
-0.12688
-0.127884
-0.128905
-0.129942
0.130311
-0.111834
-0.112613
-0.113404
-0.114206
-0.115019
-0.115843
-0.11668
-0.117529
-0.11839
-0.119264
-0.120152
-0.121052
-0.121966
-0.122894
-0.123836
-0.124792
-0.125764
-0.126751
-0.127753
-0.128772
-0.129806
0.130635
-0.111733
-0.112511
-0.1133
-0.114101
-0.114912
-0.115736
-0.116571
-0.117418
-0.118278
-0.11915
-0.120036
-0.120934
-0.121846
-0.122772
-0.123713
-0.124667
-0.125637
-0.126622
-0.127622
-0.128638
-0.129671
0.130968
-0.111633
-0.112409
-0.113197
-0.113996
-0.114806
-0.115628
-0.116461
-0.117307
-0.118165
-0.119036
-0.11992
-0.120817
-0.121727
-0.122651
-0.12359
-0.124542
-0.12551
-0.126493
-0.127491
-0.128505
-0.129536
0.131312
-0.111532
-0.112308
-0.113094
-0.113891
-0.1147
-0.11552
-0.116352
-0.117196
-0.118053
-0.118922
-0.119804
-0.120699
-0.121608
-0.12253
-0.123467
-0.124418
-0.125383
-0.126364
-0.12736
-0.128373
-0.129401
0.131666
-0.111432
-0.112206
-0.112991
-0.113787
-0.114594
-0.115413
-0.116243
-0.117086
-0.11794
-0.118808
-0.119688
-0.120582
-0.121488
-0.122409
-0.123344
-0.124293
-0.125257
-0.126235
-0.12723
-0.12824
-0.129266
0.132029
-0.111332
-0.112104
-0.112888
-0.113682
-0.114488
-0.115305
-0.116134
-0.116975
-0.117828
-0.118694
-0.119573
-0.120464
-0.121369
-0.122288
-0.123221
-0.124168
-0.12513
-0.126107
-0.127099
-0.128107
-0.129131
0.132402
-0.111231
-0.112003
-0.112785
-0.113578
-0.114382
-0.115198
-0.116025
-0.116864
-0.117716
-0.11858
-0.119457
-0.120347
-0.12125
-0.122167
-0.123098
-0.124044
-0.125004
-0.125978
-0.126969
-0.127975
-0.128997
0.132786
-0.111131
-0.111901
-0.112682
-0.113473
-0.114276
-0.11509
-0.115916
-0.116754
-0.117604
-0.118466
-0.119342
-0.12023
-0.121132
-0.122047
-0.122976
-0.123919
-0.124877
-0.12585
-0.126838
-0.127842
-0.128862
0.133179
-0.111031
-0.1118
-0.112579
-0.113369
-0.11417
-0.114983
-0.115807
-0.116644
-0.117492
-0.118353
-0.119226
-0.120113
-0.121013
-0.121926
-0.122853
-0.123795
-0.124751
-0.125722
-0.126708
-0.12771
-0.128728
0.133582
-0.110931
-0.111699
-0.112476
-0.113265
-0.114065
-0.114876
-0.115699
-0.116533
-0.11738
-0.118239
-0.119111
-0.119996
-0.120894
-0.121806
-0.122731
-0.123671
-0.124625
-0.125594
-0.126578
-0.127578
-0.128593
0.13394
-0.110854
-0.11162
-0.112396
-0.113184
-0.113982
-0.114792
-0.115614
-0.116447
-0.117293
-0.118151
-0.119022
-0.119905
-0.120802
-0.121712
-0.122636
-0.123574
-0.124527
-0.125494
-0.126477
-0.127475
-0.128489
0.145552
)
;

boundaryField
{
    inlet
    {
        type            calculated;
        value           uniform 0;
    }
    outlet2
    {
        type            calculated;
        value           uniform 0;
    }
    outlet1
    {
        type            calculated;
        value           uniform 0;
    }
    wall
    {
        type            calculated;
        value           uniform 0;
    }
    symmetryBottom
    {
        type            symmetry;
    }
    symmetryZ0
    {
        type            symmetry;
    }
    symmetryZ05
    {
        type            symmetry;
    }
}


// ************************************************************************* //
