/*--------------------------------*- C++ -*----------------------------------*\
| =========                 |                                                 |
| \\      /  F ield         | OpenFOAM: The Open Source CFD Toolbox           |
|  \\    /   O peration     | Version:  2412                                  |
|   \\  /    A nd           | Website:  www.openfoam.com                      |
|    \\/     M anipulation  |                                                 |
\*---------------------------------------------------------------------------*/
FoamFile
{
    version     2.0;
    format      ascii;
    arch        "LSB;label=32;scalar=64";
    class       volScalarField;
    location    "1.07831e-06";
    object      p;
}
// * * * * * * * * * * * * * * * * * * * * * * * * * * * * * * * * * * * * * //

dimensions      [0 0 0 0 0 0 0];

internalField   nonuniform List<scalar> 
625
(
1.18949
0.98383
0.983825
1.18963
0.983953
0.983953
1.18958
0.983905
0.983906
1.18958
0.983906
0.983906
1.18958
0.983906
0.983906
1.18958
0.983906
0.983906
1.18958
0.983906
0.983906
1.18958
0.983906
0.983906
1.18958
0.983906
0.983906
1.18958
0.983906
0.983906
1.18958
0.983906
0.983906
1.18958
0.983906
0.983906
1.18958
0.983906
0.983906
1.18958
0.983906
0.983906
1.18958
0.983906
0.983906
1.18958
0.983906
0.983906
1.18958
0.983906
0.983906
1.18958
0.983906
0.983906
1.18958
0.983906
0.983906
1.18958
0.983906
0.983906
1.18958
0.983906
0.983906
1.18958
0.983906
0.983906
1.18958
0.983906
0.983906
1.18958
0.983906
0.983907
1.18959
0.983862
0.983864
1.24248
1.2445
1.24656
1.24865
1.25078
1.25294
1.25515
1.25739
1.25968
1.26201
1.26439
1.26681
1.26927
1.27179
1.27435
1.27696
1.27963
1.28235
1.28512
1.28795
1.29084
1.29225
1.03682
1.03695
1.03708
1.03722
1.03736
1.03749
1.03763
1.03777
1.03792
1.03806
1.03821
1.03836
1.03851
1.03866
1.03882
1.03897
1.03913
1.03929
1.03945
1.03962
1.03979
1.04096
1.03765
1.03781
1.03796
1.03812
1.03828
1.03844
1.03861
1.03877
1.03894
1.03911
1.03929
1.03947
1.03965
1.03983
1.04001
1.0402
1.04039
1.04059
1.04079
1.04099
1.04119
1.04237
1.03664
1.03678
1.03693
1.03708
1.03723
1.03739
1.03754
1.0377
1.03786
1.03803
1.03819
1.03836
1.03853
1.03871
1.03888
1.03906
1.03924
1.03943
1.03962
1.03981
1.04
1.04118
1.03563
1.03577
1.03591
1.03606
1.0362
1.03635
1.0365
1.03665
1.0368
1.03696
1.03712
1.03728
1.03744
1.03761
1.03777
1.03794
1.03812
1.03829
1.03847
1.03865
1.03884
1.04002
1.03463
1.03477
1.0349
1.03504
1.03517
1.03531
1.03545
1.0356
1.03574
1.03589
1.03604
1.03619
1.03635
1.03651
1.03667
1.03683
1.03699
1.03716
1.03733
1.0375
1.03768
1.03885
1.03364
1.03376
1.03389
1.03402
1.03415
1.03428
1.03441
1.03455
1.03469
1.03483
1.03497
1.03511
1.03526
1.03541
1.03556
1.03571
1.03587
1.03603
1.03619
1.03635
1.03651
1.03769
1.03264
1.03275
1.03287
1.033
1.03312
1.03324
1.03337
1.0335
1.03363
1.03376
1.03389
1.03403
1.03417
1.03431
1.03445
1.0346
1.03474
1.03489
1.03504
1.0352
1.03535
1.03653
1.03164
1.03175
1.03186
1.03198
1.03209
1.03221
1.03233
1.03245
1.03257
1.0327
1.03282
1.03295
1.03308
1.03321
1.03335
1.03348
1.03362
1.03376
1.0339
1.03405
1.0342
1.03537
1.03064
1.03075
1.03085
1.03096
1.03107
1.03118
1.03129
1.0314
1.03152
1.03163
1.03175
1.03187
1.03199
1.03212
1.03224
1.03237
1.0325
1.03263
1.03276
1.0329
1.03304
1.03421
1.02965
1.02975
1.02984
1.02994
1.03004
1.03015
1.03025
1.03036
1.03046
1.03057
1.03068
1.03079
1.03091
1.03102
1.03114
1.03126
1.03138
1.0315
1.03163
1.03176
1.03188
1.03305
1.02866
1.02875
1.02884
1.02893
1.02902
1.02912
1.02922
1.02931
1.02941
1.02951
1.02962
1.02972
1.02983
1.02993
1.03004
1.03015
1.03026
1.03038
1.03049
1.03061
1.03073
1.0319
1.02766
1.02775
1.02783
1.02792
1.028
1.02809
1.02818
1.02827
1.02836
1.02846
1.02855
1.02865
1.02874
1.02884
1.02894
1.02905
1.02915
1.02925
1.02936
1.02947
1.02958
1.03075
1.02667
1.02675
1.02683
1.0269
1.02698
1.02706
1.02715
1.02723
1.02731
1.0274
1.02749
1.02757
1.02766
1.02775
1.02785
1.02794
1.02803
1.02813
1.02823
1.02833
1.02843
1.02959
1.02568
1.02575
1.02582
1.02589
1.02597
1.02604
1.02611
1.02619
1.02627
1.02634
1.02642
1.0265
1.02658
1.02667
1.02675
1.02683
1.02692
1.02701
1.0271
1.02719
1.02728
1.02844
1.02469
1.02476
1.02482
1.02488
1.02495
1.02501
1.02508
1.02515
1.02522
1.02529
1.02536
1.02543
1.0255
1.02558
1.02565
1.02573
1.02581
1.02589
1.02597
1.02605
1.02613
1.0273
1.0237
1.02376
1.02382
1.02387
1.02393
1.02399
1.02405
1.02411
1.02417
1.02423
1.0243
1.02436
1.02443
1.02449
1.02456
1.02463
1.0247
1.02477
1.02484
1.02491
1.02498
1.02615
1.02272
1.02277
1.02282
1.02287
1.02292
1.02297
1.02302
1.02307
1.02313
1.02318
1.02324
1.02329
1.02335
1.02341
1.02347
1.02353
1.02359
1.02365
1.02371
1.02377
1.02384
1.025
1.02173
1.02177
1.02181
1.02186
1.0219
1.02195
1.02199
1.02204
1.02208
1.02213
1.02218
1.02222
1.02227
1.02232
1.02237
1.02243
1.02248
1.02253
1.02258
1.02264
1.02269
1.02385
1.02074
1.02078
1.02081
1.02085
1.02089
1.02092
1.02096
1.021
1.02104
1.02108
1.02112
1.02116
1.0212
1.02124
1.02128
1.02133
1.02137
1.02141
1.02146
1.0215
1.02155
1.02271
1.01976
1.01979
1.01982
1.01985
1.01987
1.0199
1.01993
1.01996
1.02
1.02003
1.02006
1.02009
1.02012
1.02016
1.02019
1.02023
1.02026
1.0203
1.02033
1.02037
1.02041
1.02157
1.01878
1.0188
1.01882
1.01884
1.01886
1.01888
1.01891
1.01893
1.01895
1.01898
1.019
1.01903
1.01905
1.01908
1.0191
1.01913
1.01916
1.01918
1.01921
1.01924
1.01927
1.02042
1.01779
1.01781
1.01782
1.01784
1.01785
1.01787
1.01788
1.0179
1.01791
1.01793
1.01795
1.01796
1.01798
1.018
1.01802
1.01803
1.01805
1.01807
1.01809
1.01811
1.01813
1.01928
1.01681
1.01682
1.01683
1.01683
1.01684
1.01685
1.01686
1.01687
1.01687
1.01688
1.01689
1.0169
1.01691
1.01692
1.01693
1.01694
1.01695
1.01696
1.01697
1.01698
1.01699
1.01814
1.01579
1.01579
1.01579
1.01579
1.01579
1.01579
1.01579
1.01579
1.01579
1.01579
1.0158
1.0158
1.0158
1.0158
1.0158
1.0158
1.0158
1.0158
1.0158
1.0158
1.0158
1.01696
)
;

boundaryField
{
    inlet
    {
        type            calculated;
        value           uniform 0;
    }
    outlet2
    {
        type            calculated;
        value           uniform 0;
    }
    outlet1
    {
        type            calculated;
        value           uniform 0;
    }
    wall
    {
        type            calculated;
        value           uniform 0;
    }
    symmetryBottom
    {
        type            symmetry;
    }
    symmetryZ0
    {
        type            symmetry;
    }
    symmetryZ05
    {
        type            symmetry;
    }
}


// ************************************************************************* //
