/*--------------------------------*- C++ -*----------------------------------*\
| =========                 |                                                 |
| \\      /  F ield         | OpenFOAM: The Open Source CFD Toolbox           |
|  \\    /   O peration     | Version:  2412                                  |
|   \\  /    A nd           | Website:  www.openfoam.com                      |
|    \\/     M anipulation  |                                                 |
\*---------------------------------------------------------------------------*/
FoamFile
{
    version     2.0;
    format      ascii;
    arch        "LSB;label=32;scalar=64";
    class       volScalarField;
    location    "1.07831e-06";
    object      rho;
}
// * * * * * * * * * * * * * * * * * * * * * * * * * * * * * * * * * * * * * //

dimensions      [0 0 0 0 0 0 0];

internalField   nonuniform List<scalar> 
625
(
2.86273e-05
2.36782e-05
2.36782e-05
2.86281e-05
2.36789e-05
2.36789e-05
2.86274e-05
2.36782e-05
2.36782e-05
2.86274e-05
2.36782e-05
2.36782e-05
2.86274e-05
2.36782e-05
2.36782e-05
2.86274e-05
2.36782e-05
2.36782e-05
2.86274e-05
2.36782e-05
2.36782e-05
2.86274e-05
2.36782e-05
2.36782e-05
2.86274e-05
2.36782e-05
2.36782e-05
2.86274e-05
2.36782e-05
2.36782e-05
2.86274e-05
2.36782e-05
2.36782e-05
2.86274e-05
2.36782e-05
2.36782e-05
2.86274e-05
2.36782e-05
2.36782e-05
2.86274e-05
2.36782e-05
2.36782e-05
2.86274e-05
2.36782e-05
2.36782e-05
2.86274e-05
2.36782e-05
2.36782e-05
2.86274e-05
2.36782e-05
2.36782e-05
2.86274e-05
2.36782e-05
2.36782e-05
2.86274e-05
2.36782e-05
2.36782e-05
2.86274e-05
2.36782e-05
2.36782e-05
2.86274e-05
2.36782e-05
2.36782e-05
2.86274e-05
2.36782e-05
2.36782e-05
2.86274e-05
2.36782e-05
2.36782e-05
2.86274e-05
2.36782e-05
2.36782e-05
2.86276e-05
2.36772e-05
2.36772e-05
2.44695e-05
2.44699e-05
2.44704e-05
2.44709e-05
2.44714e-05
2.4472e-05
2.44725e-05
2.4473e-05
2.44736e-05
2.44742e-05
2.44748e-05
2.44754e-05
2.4476e-05
2.44766e-05
2.44773e-05
2.4478e-05
2.44787e-05
2.44794e-05
2.44801e-05
2.44808e-05
2.44816e-05
2.45087e-05
2.50038e-05
2.50078e-05
2.50118e-05
2.50159e-05
2.502e-05
2.50242e-05
2.50285e-05
2.50328e-05
2.50372e-05
2.50417e-05
2.50462e-05
2.50508e-05
2.50555e-05
2.50603e-05
2.50651e-05
2.507e-05
2.50749e-05
2.508e-05
2.50851e-05
2.50903e-05
2.50956e-05
2.51234e-05
2.49712e-05
2.49749e-05
2.49786e-05
2.49824e-05
2.49862e-05
2.49901e-05
2.49941e-05
2.49981e-05
2.50022e-05
2.50063e-05
2.50105e-05
2.50148e-05
2.50191e-05
2.50235e-05
2.50279e-05
2.50324e-05
2.5037e-05
2.50417e-05
2.50465e-05
2.50513e-05
2.50562e-05
2.50839e-05
2.49471e-05
2.49506e-05
2.49542e-05
2.49578e-05
2.49614e-05
2.49652e-05
2.49689e-05
2.49728e-05
2.49766e-05
2.49806e-05
2.49846e-05
2.49886e-05
2.49928e-05
2.4997e-05
2.50012e-05
2.50055e-05
2.50099e-05
2.50144e-05
2.50189e-05
2.50235e-05
2.50281e-05
2.50559e-05
2.4923e-05
2.49263e-05
2.49297e-05
2.49332e-05
2.49367e-05
2.49402e-05
2.49438e-05
2.49474e-05
2.49511e-05
2.49549e-05
2.49587e-05
2.49626e-05
2.49665e-05
2.49705e-05
2.49745e-05
2.49786e-05
2.49828e-05
2.4987e-05
2.49913e-05
2.49957e-05
2.50002e-05
2.50278e-05
2.48989e-05
2.49021e-05
2.49053e-05
2.49086e-05
2.49119e-05
2.49153e-05
2.49187e-05
2.49221e-05
2.49257e-05
2.49292e-05
2.49328e-05
2.49365e-05
2.49402e-05
2.4944e-05
2.49479e-05
2.49518e-05
2.49557e-05
2.49597e-05
2.49638e-05
2.4968e-05
2.49722e-05
2.49998e-05
2.48749e-05
2.48779e-05
2.48809e-05
2.4884e-05
2.48872e-05
2.48904e-05
2.48936e-05
2.48969e-05
2.49002e-05
2.49036e-05
2.4907e-05
2.49105e-05
2.4914e-05
2.49176e-05
2.49212e-05
2.49249e-05
2.49287e-05
2.49325e-05
2.49363e-05
2.49403e-05
2.49443e-05
2.49719e-05
2.48509e-05
2.48537e-05
2.48566e-05
2.48595e-05
2.48625e-05
2.48655e-05
2.48685e-05
2.48716e-05
2.48748e-05
2.48779e-05
2.48812e-05
2.48844e-05
2.48878e-05
2.48912e-05
2.48946e-05
2.48981e-05
2.49016e-05
2.49052e-05
2.49089e-05
2.49126e-05
2.49164e-05
2.49439e-05
2.48269e-05
2.48295e-05
2.48322e-05
2.4835e-05
2.48378e-05
2.48406e-05
2.48435e-05
2.48464e-05
2.48493e-05
2.48523e-05
2.48554e-05
2.48585e-05
2.48616e-05
2.48648e-05
2.4868e-05
2.48713e-05
2.48746e-05
2.4878e-05
2.48814e-05
2.48849e-05
2.48885e-05
2.4916e-05
2.48029e-05
2.48054e-05
2.48079e-05
2.48105e-05
2.48131e-05
2.48158e-05
2.48185e-05
2.48212e-05
2.48239e-05
2.48268e-05
2.48296e-05
2.48325e-05
2.48354e-05
2.48384e-05
2.48414e-05
2.48445e-05
2.48476e-05
2.48508e-05
2.4854e-05
2.48573e-05
2.48606e-05
2.48882e-05
2.4779e-05
2.47813e-05
2.47837e-05
2.47861e-05
2.47885e-05
2.4791e-05
2.47935e-05
2.47961e-05
2.47986e-05
2.48013e-05
2.48039e-05
2.48066e-05
2.48093e-05
2.48121e-05
2.4815e-05
2.48178e-05
2.48207e-05
2.48237e-05
2.48267e-05
2.48298e-05
2.48329e-05
2.48604e-05
2.47551e-05
2.47573e-05
2.47595e-05
2.47617e-05
2.4764e-05
2.47663e-05
2.47686e-05
2.47709e-05
2.47733e-05
2.47758e-05
2.47782e-05
2.47808e-05
2.47833e-05
2.47859e-05
2.47885e-05
2.47912e-05
2.47939e-05
2.47966e-05
2.47994e-05
2.48022e-05
2.48051e-05
2.48326e-05
2.47312e-05
2.47332e-05
2.47353e-05
2.47373e-05
2.47394e-05
2.47415e-05
2.47437e-05
2.47459e-05
2.47481e-05
2.47503e-05
2.47526e-05
2.47549e-05
2.47573e-05
2.47596e-05
2.47621e-05
2.47645e-05
2.4767e-05
2.47696e-05
2.47721e-05
2.47748e-05
2.47774e-05
2.48049e-05
2.47074e-05
2.47092e-05
2.47111e-05
2.4713e-05
2.47149e-05
2.47168e-05
2.47188e-05
2.47208e-05
2.47228e-05
2.47249e-05
2.4727e-05
2.47291e-05
2.47313e-05
2.47334e-05
2.47357e-05
2.47379e-05
2.47402e-05
2.47425e-05
2.47449e-05
2.47473e-05
2.47497e-05
2.47772e-05
2.46836e-05
2.46852e-05
2.46869e-05
2.46886e-05
2.46904e-05
2.46922e-05
2.46939e-05
2.46958e-05
2.46976e-05
2.46995e-05
2.47014e-05
2.47033e-05
2.47053e-05
2.47073e-05
2.47093e-05
2.47113e-05
2.47134e-05
2.47155e-05
2.47177e-05
2.47199e-05
2.47221e-05
2.47495e-05
2.46598e-05
2.46613e-05
2.46628e-05
2.46643e-05
2.46659e-05
2.46675e-05
2.46691e-05
2.46708e-05
2.46724e-05
2.46741e-05
2.46758e-05
2.46776e-05
2.46793e-05
2.46811e-05
2.46829e-05
2.46848e-05
2.46866e-05
2.46886e-05
2.46905e-05
2.46925e-05
2.46945e-05
2.47218e-05
2.4636e-05
2.46373e-05
2.46387e-05
2.46401e-05
2.46415e-05
2.46429e-05
2.46443e-05
2.46458e-05
2.46472e-05
2.46487e-05
2.46503e-05
2.46518e-05
2.46534e-05
2.4655e-05
2.46566e-05
2.46582e-05
2.46599e-05
2.46616e-05
2.46633e-05
2.46651e-05
2.46669e-05
2.46942e-05
2.46122e-05
2.46134e-05
2.46146e-05
2.46158e-05
2.4617e-05
2.46183e-05
2.46195e-05
2.46208e-05
2.46221e-05
2.46234e-05
2.46247e-05
2.46261e-05
2.46275e-05
2.46289e-05
2.46303e-05
2.46317e-05
2.46332e-05
2.46347e-05
2.46362e-05
2.46377e-05
2.46393e-05
2.46666e-05
2.45885e-05
2.45895e-05
2.45905e-05
2.45915e-05
2.45926e-05
2.45937e-05
2.45948e-05
2.45959e-05
2.4597e-05
2.45981e-05
2.45992e-05
2.46004e-05
2.46016e-05
2.46028e-05
2.4604e-05
2.46053e-05
2.46065e-05
2.46078e-05
2.46091e-05
2.46104e-05
2.46117e-05
2.4639e-05
2.45648e-05
2.45656e-05
2.45665e-05
2.45673e-05
2.45682e-05
2.45691e-05
2.457e-05
2.45709e-05
2.45719e-05
2.45728e-05
2.45738e-05
2.45747e-05
2.45757e-05
2.45767e-05
2.45778e-05
2.45788e-05
2.45798e-05
2.45809e-05
2.4582e-05
2.45831e-05
2.45842e-05
2.46115e-05
2.45411e-05
2.45417e-05
2.45424e-05
2.45431e-05
2.45438e-05
2.45446e-05
2.45453e-05
2.4546e-05
2.45468e-05
2.45475e-05
2.45483e-05
2.45491e-05
2.45499e-05
2.45507e-05
2.45515e-05
2.45524e-05
2.45532e-05
2.45541e-05
2.45549e-05
2.45558e-05
2.45567e-05
2.4584e-05
2.45174e-05
2.45179e-05
2.45184e-05
2.4519e-05
2.45195e-05
2.452e-05
2.45206e-05
2.45211e-05
2.45217e-05
2.45223e-05
2.45229e-05
2.45235e-05
2.45241e-05
2.45247e-05
2.45253e-05
2.4526e-05
2.45266e-05
2.45273e-05
2.45279e-05
2.45286e-05
2.45293e-05
2.45565e-05
2.44937e-05
2.44941e-05
2.44944e-05
2.44948e-05
2.44952e-05
2.44955e-05
2.44959e-05
2.44963e-05
2.44967e-05
2.44971e-05
2.44975e-05
2.44979e-05
2.44983e-05
2.44987e-05
2.44991e-05
2.44996e-05
2.45e-05
2.45005e-05
2.45009e-05
2.45014e-05
2.45018e-05
2.4529e-05
2.44701e-05
2.44703e-05
2.44705e-05
2.44707e-05
2.44709e-05
2.44711e-05
2.44713e-05
2.44715e-05
2.44717e-05
2.44719e-05
2.44721e-05
2.44723e-05
2.44725e-05
2.44728e-05
2.4473e-05
2.44732e-05
2.44735e-05
2.44737e-05
2.44739e-05
2.44742e-05
2.44744e-05
2.45016e-05
2.44455e-05
2.44455e-05
2.44456e-05
2.44456e-05
2.44456e-05
2.44456e-05
2.44456e-05
2.44457e-05
2.44457e-05
2.44457e-05
2.44457e-05
2.44457e-05
2.44458e-05
2.44458e-05
2.44458e-05
2.44458e-05
2.44459e-05
2.44459e-05
2.44459e-05
2.44459e-05
2.4446e-05
2.44732e-05
)
;

boundaryField
{
    inlet
    {
        type            calculated;
        value           uniform 0;
    }
    outlet2
    {
        type            calculated;
        value           uniform 0;
    }
    outlet1
    {
        type            calculated;
        value           uniform 0;
    }
    wall
    {
        type            calculated;
        value           uniform 0;
    }
    symmetryBottom
    {
        type            symmetry;
    }
    symmetryZ0
    {
        type            symmetry;
    }
    symmetryZ05
    {
        type            symmetry;
    }
}


// ************************************************************************* //
