/*--------------------------------*- C++ -*----------------------------------*\
| =========                 |                                                 |
| \\      /  F ield         | OpenFOAM: The Open Source CFD Toolbox           |
|  \\    /   O peration     | Version:  2412                                  |
|   \\  /    A nd           | Website:  www.openfoam.com                      |
|    \\/     M anipulation  |                                                 |
\*---------------------------------------------------------------------------*/
FoamFile
{
    version     2.0;
    format      ascii;
    arch        "LSB;label=32;scalar=64";
    class       volScalarField;
    location    "1.07831e-06";
    object      rho_dof1;
}
// * * * * * * * * * * * * * * * * * * * * * * * * * * * * * * * * * * * * * //

dimensions      [0 0 0 0 0 0 0];

internalField   nonuniform List<scalar> 
625
(
1.28278e-05
-7.34382e-13
-7.0141e-09
1.2828e-05
-7.3437e-13
-8.8859e-10
1.2828e-05
-7.34387e-13
-2.94704e-09
1.2828e-05
-7.34387e-13
-2.93865e-09
1.2828e-05
-7.34387e-13
-2.93867e-09
1.2828e-05
-7.34387e-13
-2.93867e-09
1.2828e-05
-7.34387e-13
-2.93867e-09
1.2828e-05
-7.34387e-13
-2.93867e-09
1.2828e-05
-7.34387e-13
-2.93867e-09
1.2828e-05
-7.34387e-13
-2.93867e-09
1.2828e-05
-7.34387e-13
-2.93867e-09
1.2828e-05
-7.34387e-13
-2.93867e-09
1.2828e-05
-7.34387e-13
-2.93867e-09
1.2828e-05
-7.34387e-13
-2.93867e-09
1.2828e-05
-7.34387e-13
-2.93867e-09
1.2828e-05
-7.34387e-13
-2.93867e-09
1.2828e-05
-7.34387e-13
-2.93867e-09
1.2828e-05
-7.34387e-13
-2.93867e-09
1.2828e-05
-7.34387e-13
-2.93867e-09
1.2828e-05
-7.34387e-13
-2.93867e-09
1.2828e-05
-7.34387e-13
-2.93867e-09
1.2828e-05
-7.34387e-13
-2.93867e-09
1.2828e-05
-7.34387e-13
-2.9385e-09
1.2828e-05
-7.34387e-13
-3.00346e-09
1.2831e-05
-7.34715e-13
-2.81298e-10
-3.09985e-08
-3.12123e-08
-3.1429e-08
-3.16488e-08
-3.18717e-08
-3.20978e-08
-3.23271e-08
-3.25597e-08
-3.27956e-08
-3.3035e-08
-3.3278e-08
-3.35245e-08
-3.37747e-08
-3.40287e-08
-3.42865e-08
-3.45483e-08
-3.4814e-08
-3.5084e-08
-3.53581e-08
-3.56366e-08
-3.59194e-08
-1.86044e-06
-3.16989e-08
-3.19224e-08
-3.2149e-08
-3.23789e-08
-3.26121e-08
-3.28487e-08
-3.30887e-08
-3.33323e-08
-3.35795e-08
-3.38304e-08
-3.4085e-08
-3.43436e-08
-3.46061e-08
-3.48725e-08
-3.51432e-08
-3.54181e-08
-3.56973e-08
-3.5981e-08
-3.62692e-08
-3.6562e-08
-3.68596e-08
6.83611e-08
-3.16708e-08
-3.18939e-08
-3.21201e-08
-3.23496e-08
-3.25824e-08
-3.28185e-08
-3.30581e-08
-3.33013e-08
-3.3548e-08
-3.37984e-08
-3.40526e-08
-3.43106e-08
-3.45726e-08
-3.48386e-08
-3.51087e-08
-3.53831e-08
-3.56617e-08
-3.59448e-08
-3.62324e-08
-3.65247e-08
-3.68217e-08
3.42588e-08
-3.16431e-08
-3.18658e-08
-3.20916e-08
-3.23207e-08
-3.25531e-08
-3.27888e-08
-3.3028e-08
-3.32707e-08
-3.3517e-08
-3.37669e-08
-3.40206e-08
-3.42782e-08
-3.45396e-08
-3.48051e-08
-3.50748e-08
-3.53486e-08
-3.56267e-08
-3.59092e-08
-3.61963e-08
-3.6488e-08
-3.67844e-08
3.45036e-08
-3.16154e-08
-3.18377e-08
-3.20632e-08
-3.22919e-08
-3.25238e-08
-3.27591e-08
-3.29979e-08
-3.32401e-08
-3.34859e-08
-3.37355e-08
-3.39887e-08
-3.42457e-08
-3.45068e-08
-3.47717e-08
-3.50408e-08
-3.53141e-08
-3.55917e-08
-3.58737e-08
-3.61602e-08
-3.64513e-08
-3.67471e-08
3.47673e-08
-3.15878e-08
-3.18097e-08
-3.20348e-08
-3.2263e-08
-3.24946e-08
-3.27294e-08
-3.29678e-08
-3.32096e-08
-3.3455e-08
-3.3704e-08
-3.39568e-08
-3.42134e-08
-3.44738e-08
-3.47384e-08
-3.50069e-08
-3.52797e-08
-3.55567e-08
-3.58382e-08
-3.61241e-08
-3.64147e-08
-3.67099e-08
3.50353e-08
-3.15601e-08
-3.17817e-08
-3.20063e-08
-3.22342e-08
-3.24653e-08
-3.26998e-08
-3.29377e-08
-3.31791e-08
-3.3424e-08
-3.36726e-08
-3.39249e-08
-3.4181e-08
-3.4441e-08
-3.4705e-08
-3.49731e-08
-3.52453e-08
-3.55218e-08
-3.58027e-08
-3.60881e-08
-3.6378e-08
-3.66727e-08
3.53102e-08
-3.15325e-08
-3.17537e-08
-3.19779e-08
-3.22054e-08
-3.24361e-08
-3.26702e-08
-3.29076e-08
-3.31486e-08
-3.33931e-08
-3.36412e-08
-3.3893e-08
-3.41487e-08
-3.44082e-08
-3.46717e-08
-3.49392e-08
-3.52109e-08
-3.54869e-08
-3.57673e-08
-3.60521e-08
-3.63414e-08
-3.66355e-08
3.55921e-08
-3.15049e-08
-3.17257e-08
-3.19496e-08
-3.21766e-08
-3.2407e-08
-3.26406e-08
-3.28776e-08
-3.31181e-08
-3.33621e-08
-3.36098e-08
-3.38612e-08
-3.41163e-08
-3.43754e-08
-3.46384e-08
-3.49054e-08
-3.51766e-08
-3.5452e-08
-3.57319e-08
-3.60161e-08
-3.63049e-08
-3.65984e-08
3.5881e-08
-3.14773e-08
-3.16977e-08
-3.19212e-08
-3.21479e-08
-3.23778e-08
-3.2611e-08
-3.28476e-08
-3.30877e-08
-3.33313e-08
-3.35784e-08
-3.38294e-08
-3.4084e-08
-3.43426e-08
-3.46051e-08
-3.48716e-08
-3.51423e-08
-3.54172e-08
-3.56964e-08
-3.59801e-08
-3.62684e-08
-3.65612e-08
3.61723e-08
-3.14494e-08
-3.16694e-08
-3.18925e-08
-3.21187e-08
-3.23482e-08
-3.2581e-08
-3.28172e-08
-3.30568e-08
-3.32999e-08
-3.35467e-08
-3.37971e-08
-3.40513e-08
-3.43093e-08
-3.45713e-08
-3.48374e-08
-3.51075e-08
-3.53819e-08
-3.56606e-08
-3.59437e-08
-3.62313e-08
-3.65236e-08
3.62661e-08
-3.14214e-08
-3.1641e-08
-3.18638e-08
-3.20896e-08
-3.23187e-08
-3.2551e-08
-3.27868e-08
-3.30259e-08
-3.32686e-08
-3.35149e-08
-3.37649e-08
-3.40186e-08
-3.42761e-08
-3.45376e-08
-3.48031e-08
-3.50727e-08
-3.53466e-08
-3.56247e-08
-3.59072e-08
-3.61943e-08
-3.6486e-08
3.6343e-08
-3.13935e-08
-3.16128e-08
-3.1835e-08
-3.20605e-08
-3.22891e-08
-3.25211e-08
-3.27564e-08
-3.29951e-08
-3.32373e-08
-3.34832e-08
-3.37327e-08
-3.39859e-08
-3.4243e-08
-3.45039e-08
-3.47689e-08
-3.5038e-08
-3.53113e-08
-3.55889e-08
-3.58709e-08
-3.61573e-08
-3.64485e-08
3.64224e-08
-3.13656e-08
-3.15844e-08
-3.18064e-08
-3.20314e-08
-3.22596e-08
-3.24912e-08
-3.2726e-08
-3.29643e-08
-3.32061e-08
-3.34515e-08
-3.37005e-08
-3.39532e-08
-3.42098e-08
-3.44703e-08
-3.47347e-08
-3.50033e-08
-3.5276e-08
-3.55531e-08
-3.58345e-08
-3.61204e-08
-3.64109e-08
3.65049e-08
-3.13378e-08
-3.15562e-08
-3.17777e-08
-3.20023e-08
-3.22302e-08
-3.24613e-08
-3.26957e-08
-3.29336e-08
-3.31749e-08
-3.34198e-08
-3.36683e-08
-3.39206e-08
-3.41767e-08
-3.44366e-08
-3.47006e-08
-3.49686e-08
-3.52408e-08
-3.55173e-08
-3.57982e-08
-3.60835e-08
-3.63734e-08
3.65905e-08
-3.13099e-08
-3.1528e-08
-3.1749e-08
-3.19733e-08
-3.22007e-08
-3.24314e-08
-3.26654e-08
-3.29028e-08
-3.31437e-08
-3.33881e-08
-3.36362e-08
-3.3888e-08
-3.41436e-08
-3.4403e-08
-3.46665e-08
-3.4934e-08
-3.52057e-08
-3.54816e-08
-3.57619e-08
-3.60466e-08
-3.6336e-08
3.66791e-08
-3.12821e-08
-3.14997e-08
-3.17205e-08
-3.19443e-08
-3.21713e-08
-3.24015e-08
-3.26351e-08
-3.28721e-08
-3.31125e-08
-3.33565e-08
-3.36041e-08
-3.38554e-08
-3.41105e-08
-3.43695e-08
-3.46324e-08
-3.48994e-08
-3.51705e-08
-3.54459e-08
-3.57256e-08
-3.60098e-08
-3.62985e-08
3.67708e-08
-3.12543e-08
-3.14715e-08
-3.16918e-08
-3.19153e-08
-3.21419e-08
-3.23717e-08
-3.26049e-08
-3.28414e-08
-3.30814e-08
-3.33249e-08
-3.3572e-08
-3.38229e-08
-3.40775e-08
-3.43359e-08
-3.45983e-08
-3.48648e-08
-3.51354e-08
-3.54102e-08
-3.56894e-08
-3.5973e-08
-3.62611e-08
3.68656e-08
-3.12265e-08
-3.14434e-08
-3.16633e-08
-3.18863e-08
-3.21125e-08
-3.23419e-08
-3.25746e-08
-3.28107e-08
-3.30503e-08
-3.32933e-08
-3.354e-08
-3.37903e-08
-3.40444e-08
-3.43024e-08
-3.45643e-08
-3.48302e-08
-3.51003e-08
-3.53746e-08
-3.56532e-08
-3.59362e-08
-3.62238e-08
3.69633e-08
-3.11987e-08
-3.14152e-08
-3.16347e-08
-3.18573e-08
-3.20831e-08
-3.23121e-08
-3.25444e-08
-3.27801e-08
-3.30192e-08
-3.32618e-08
-3.3508e-08
-3.37578e-08
-3.40115e-08
-3.42689e-08
-3.45303e-08
-3.47957e-08
-3.50652e-08
-3.5339e-08
-3.5617e-08
-3.58995e-08
-3.61865e-08
3.70642e-08
-3.1171e-08
-3.13871e-08
-3.16062e-08
-3.18284e-08
-3.20538e-08
-3.22824e-08
-3.25142e-08
-3.27495e-08
-3.29881e-08
-3.32302e-08
-3.3476e-08
-3.37254e-08
-3.39785e-08
-3.42355e-08
-3.44964e-08
-3.47612e-08
-3.50302e-08
-3.53034e-08
-3.55809e-08
-3.58628e-08
-3.61491e-08
3.71681e-08
-3.11432e-08
-3.1359e-08
-3.15777e-08
-3.17995e-08
-3.20245e-08
-3.22526e-08
-3.24841e-08
-3.27189e-08
-3.2957e-08
-3.31987e-08
-3.3444e-08
-3.36929e-08
-3.39456e-08
-3.4202e-08
-3.44624e-08
-3.47268e-08
-3.49952e-08
-3.52679e-08
-3.55448e-08
-3.58261e-08
-3.61119e-08
3.7275e-08
-3.11155e-08
-3.13309e-08
-3.15492e-08
-3.17706e-08
-3.19952e-08
-3.22229e-08
-3.24539e-08
-3.26883e-08
-3.2926e-08
-3.31673e-08
-3.34121e-08
-3.36605e-08
-3.39127e-08
-3.41687e-08
-3.44285e-08
-3.46923e-08
-3.49603e-08
-3.52324e-08
-3.55087e-08
-3.57895e-08
-3.60746e-08
3.7385e-08
-3.10879e-08
-3.13028e-08
-3.15208e-08
-3.17418e-08
-3.19659e-08
-3.21933e-08
-3.24238e-08
-3.26578e-08
-3.28951e-08
-3.31359e-08
-3.33802e-08
-3.36281e-08
-3.38798e-08
-3.41353e-08
-3.43946e-08
-3.4658e-08
-3.49254e-08
-3.51969e-08
-3.54727e-08
-3.57529e-08
-3.60375e-08
3.74828e-08
-3.10664e-08
-3.12811e-08
-3.14987e-08
-3.17194e-08
-3.19433e-08
-3.21702e-08
-3.24005e-08
-3.26341e-08
-3.2871e-08
-3.31115e-08
-3.33554e-08
-3.3603e-08
-3.38543e-08
-3.41094e-08
-3.43684e-08
-3.46313e-08
-3.48983e-08
-3.51694e-08
-3.54448e-08
-3.57245e-08
-3.60087e-08
4.07293e-08
)
;

boundaryField
{
    inlet
    {
        type            calculated;
        value           uniform 0;
    }
    outlet2
    {
        type            calculated;
        value           uniform 0;
    }
    outlet1
    {
        type            calculated;
        value           uniform 0;
    }
    wall
    {
        type            calculated;
        value           uniform 0;
    }
    symmetryBottom
    {
        type            symmetry;
    }
    symmetryZ0
    {
        type            symmetry;
    }
    symmetryZ05
    {
        type            symmetry;
    }
}


// ************************************************************************* //
