/*--------------------------------*- C++ -*----------------------------------*\
| =========                 |                                                 |
| \\      /  F ield         | OpenFOAM: The Open Source CFD Toolbox           |
|  \\    /   O peration     | Version:  2412                                  |
|   \\  /    A nd           | Website:  www.openfoam.com                      |
|    \\/     M anipulation  |                                                 |
\*---------------------------------------------------------------------------*/
FoamFile
{
    version     2.0;
    format      ascii;
    arch        "LSB;label=32;scalar=64";
    class       volScalarField;
    location    "1.07831e-06";
    object      rho_dof3;
}
// * * * * * * * * * * * * * * * * * * * * * * * * * * * * * * * * * * * * * //

dimensions      [0 0 0 0 0 0 0];

internalField   nonuniform List<scalar> 
625
(
2.31683e-07
2.04366e-07
1.74622e-07
2.31688e-07
2.04371e-07
1.74626e-07
2.31688e-07
2.04372e-07
1.74626e-07
2.31688e-07
2.04372e-07
1.74626e-07
2.31688e-07
2.04372e-07
1.74626e-07
2.31688e-07
2.04372e-07
1.74626e-07
2.31688e-07
2.04372e-07
1.74626e-07
2.31688e-07
2.04372e-07
1.74626e-07
2.31688e-07
2.04372e-07
1.74626e-07
2.31688e-07
2.04372e-07
1.74626e-07
2.31688e-07
2.04372e-07
1.74626e-07
2.31688e-07
2.04372e-07
1.74626e-07
2.31688e-07
2.04372e-07
1.74626e-07
2.31688e-07
2.04372e-07
1.74626e-07
2.31688e-07
2.04372e-07
1.74626e-07
2.31688e-07
2.04372e-07
1.74626e-07
2.31688e-07
2.04372e-07
1.74626e-07
2.31688e-07
2.04372e-07
1.74626e-07
2.31688e-07
2.04372e-07
1.74626e-07
2.31688e-07
2.04372e-07
1.74626e-07
2.31688e-07
2.04372e-07
1.74626e-07
2.31688e-07
2.04372e-07
1.74626e-07
2.31688e-07
2.04372e-07
1.74626e-07
2.31688e-07
2.04372e-07
1.74382e-07
2.31746e-07
2.04417e-07
2.04055e-07
2.10784e-07
2.10786e-07
2.10788e-07
2.1079e-07
2.10792e-07
2.10794e-07
2.10796e-07
2.10799e-07
2.10801e-07
2.10803e-07
2.10805e-07
2.10808e-07
2.1081e-07
2.10813e-07
2.10815e-07
2.10818e-07
2.1082e-07
2.10823e-07
2.10826e-07
2.10829e-07
2.10831e-07
2.20288e-07
2.15531e-07
2.15566e-07
2.15601e-07
2.15637e-07
2.15673e-07
2.1571e-07
2.15747e-07
2.15785e-07
2.15824e-07
2.15863e-07
2.15902e-07
2.15942e-07
2.15983e-07
2.16025e-07
2.16067e-07
2.16109e-07
2.16153e-07
2.16197e-07
2.16242e-07
2.16287e-07
2.16333e-07
2.26054e-07
2.15345e-07
2.15378e-07
2.15412e-07
2.15447e-07
2.15481e-07
2.15517e-07
2.15553e-07
2.15589e-07
2.15626e-07
2.15664e-07
2.15702e-07
2.1574e-07
2.1578e-07
2.1582e-07
2.1586e-07
2.15901e-07
2.15943e-07
2.15985e-07
2.16028e-07
2.16072e-07
2.16116e-07
2.25822e-07
2.15159e-07
2.15191e-07
2.15224e-07
2.15257e-07
2.15291e-07
2.15325e-07
2.15359e-07
2.15394e-07
2.1543e-07
2.15466e-07
2.15502e-07
2.15539e-07
2.15577e-07
2.15615e-07
2.15654e-07
2.15694e-07
2.15734e-07
2.15775e-07
2.15816e-07
2.15858e-07
2.15901e-07
2.25593e-07
2.14974e-07
2.15005e-07
2.15036e-07
2.15068e-07
2.151e-07
2.15132e-07
2.15165e-07
2.15199e-07
2.15233e-07
2.15268e-07
2.15303e-07
2.15338e-07
2.15375e-07
2.15411e-07
2.15449e-07
2.15487e-07
2.15525e-07
2.15564e-07
2.15604e-07
2.15644e-07
2.15685e-07
2.25364e-07
2.14788e-07
2.14818e-07
2.14848e-07
2.14878e-07
2.14909e-07
2.1494e-07
2.14972e-07
2.15004e-07
2.15037e-07
2.1507e-07
2.15104e-07
2.15138e-07
2.15172e-07
2.15208e-07
2.15243e-07
2.15279e-07
2.15316e-07
2.15354e-07
2.15392e-07
2.1543e-07
2.1547e-07
2.25136e-07
2.14603e-07
2.14631e-07
2.1466e-07
2.14689e-07
2.14719e-07
2.14748e-07
2.14779e-07
2.14809e-07
2.14841e-07
2.14872e-07
2.14904e-07
2.14937e-07
2.1497e-07
2.15004e-07
2.15038e-07
2.15073e-07
2.15108e-07
2.15144e-07
2.1518e-07
2.15217e-07
2.15254e-07
2.24908e-07
2.14418e-07
2.14445e-07
2.14472e-07
2.145e-07
2.14528e-07
2.14557e-07
2.14586e-07
2.14615e-07
2.14645e-07
2.14675e-07
2.14706e-07
2.14737e-07
2.14768e-07
2.148e-07
2.14833e-07
2.14866e-07
2.149e-07
2.14934e-07
2.14968e-07
2.15003e-07
2.15039e-07
2.2468e-07
2.14233e-07
2.14259e-07
2.14285e-07
2.14311e-07
2.14338e-07
2.14365e-07
2.14393e-07
2.14421e-07
2.14449e-07
2.14478e-07
2.14507e-07
2.14536e-07
2.14566e-07
2.14597e-07
2.14628e-07
2.14659e-07
2.14691e-07
2.14724e-07
2.14757e-07
2.1479e-07
2.14824e-07
2.24452e-07
2.14048e-07
2.14073e-07
2.14097e-07
2.14122e-07
2.14148e-07
2.14174e-07
2.142e-07
2.14226e-07
2.14253e-07
2.1428e-07
2.14308e-07
2.14336e-07
2.14365e-07
2.14394e-07
2.14423e-07
2.14453e-07
2.14483e-07
2.14514e-07
2.14545e-07
2.14577e-07
2.1461e-07
2.24225e-07
2.13861e-07
2.13884e-07
2.13907e-07
2.13931e-07
2.13955e-07
2.13979e-07
2.14004e-07
2.14029e-07
2.14054e-07
2.1408e-07
2.14106e-07
2.14133e-07
2.1416e-07
2.14187e-07
2.14215e-07
2.14243e-07
2.14272e-07
2.14301e-07
2.14331e-07
2.14361e-07
2.14391e-07
2.23994e-07
2.13673e-07
2.13695e-07
2.13717e-07
2.13739e-07
2.13762e-07
2.13784e-07
2.13808e-07
2.13831e-07
2.13855e-07
2.1388e-07
2.13904e-07
2.1393e-07
2.13955e-07
2.13981e-07
2.14007e-07
2.14034e-07
2.14061e-07
2.14088e-07
2.14116e-07
2.14145e-07
2.14173e-07
2.23763e-07
2.13485e-07
2.13506e-07
2.13526e-07
2.13547e-07
2.13569e-07
2.1359e-07
2.13612e-07
2.13634e-07
2.13657e-07
2.1368e-07
2.13703e-07
2.13726e-07
2.1375e-07
2.13775e-07
2.13799e-07
2.13824e-07
2.1385e-07
2.13876e-07
2.13902e-07
2.13928e-07
2.13955e-07
2.23533e-07
2.13298e-07
2.13317e-07
2.13336e-07
2.13356e-07
2.13376e-07
2.13396e-07
2.13417e-07
2.13437e-07
2.13458e-07
2.1348e-07
2.13501e-07
2.13524e-07
2.13546e-07
2.13569e-07
2.13592e-07
2.13615e-07
2.13639e-07
2.13663e-07
2.13688e-07
2.13713e-07
2.13738e-07
2.23303e-07
2.13111e-07
2.13128e-07
2.13146e-07
2.13165e-07
2.13183e-07
2.13202e-07
2.13221e-07
2.1324e-07
2.1326e-07
2.1328e-07
2.133e-07
2.13321e-07
2.13342e-07
2.13363e-07
2.13384e-07
2.13406e-07
2.13428e-07
2.13451e-07
2.13474e-07
2.13497e-07
2.1352e-07
2.23073e-07
2.12923e-07
2.1294e-07
2.12957e-07
2.12974e-07
2.12991e-07
2.13008e-07
2.13026e-07
2.13044e-07
2.13062e-07
2.1308e-07
2.13099e-07
2.13118e-07
2.13138e-07
2.13157e-07
2.13177e-07
2.13197e-07
2.13218e-07
2.13239e-07
2.1326e-07
2.13281e-07
2.13303e-07
2.22843e-07
2.12737e-07
2.12752e-07
2.12767e-07
2.12783e-07
2.12798e-07
2.12815e-07
2.12831e-07
2.12847e-07
2.12864e-07
2.12881e-07
2.12898e-07
2.12916e-07
2.12934e-07
2.12952e-07
2.1297e-07
2.12989e-07
2.13007e-07
2.13027e-07
2.13046e-07
2.13066e-07
2.13086e-07
2.22614e-07
2.1255e-07
2.12564e-07
2.12578e-07
2.12592e-07
2.12606e-07
2.12621e-07
2.12636e-07
2.12651e-07
2.12666e-07
2.12682e-07
2.12698e-07
2.12714e-07
2.1273e-07
2.12746e-07
2.12763e-07
2.1278e-07
2.12797e-07
2.12815e-07
2.12833e-07
2.12851e-07
2.12869e-07
2.22385e-07
2.12363e-07
2.12376e-07
2.12388e-07
2.12401e-07
2.12414e-07
2.12428e-07
2.12441e-07
2.12455e-07
2.12469e-07
2.12483e-07
2.12497e-07
2.12511e-07
2.12526e-07
2.12541e-07
2.12556e-07
2.12572e-07
2.12587e-07
2.12603e-07
2.12619e-07
2.12636e-07
2.12653e-07
2.22155e-07
2.12176e-07
2.12188e-07
2.12199e-07
2.12211e-07
2.12222e-07
2.12234e-07
2.12246e-07
2.12259e-07
2.12271e-07
2.12284e-07
2.12297e-07
2.1231e-07
2.12323e-07
2.12336e-07
2.1235e-07
2.12364e-07
2.12378e-07
2.12392e-07
2.12406e-07
2.12421e-07
2.12436e-07
2.21927e-07
2.1199e-07
2.12e-07
2.1201e-07
2.1202e-07
2.12031e-07
2.12041e-07
2.12052e-07
2.12063e-07
2.12074e-07
2.12085e-07
2.12096e-07
2.12108e-07
2.12119e-07
2.12131e-07
2.12143e-07
2.12156e-07
2.12168e-07
2.12181e-07
2.12193e-07
2.12206e-07
2.1222e-07
2.21698e-07
2.11804e-07
2.11812e-07
2.11821e-07
2.1183e-07
2.11839e-07
2.11848e-07
2.11858e-07
2.11867e-07
2.11877e-07
2.11886e-07
2.11896e-07
2.11906e-07
2.11916e-07
2.11927e-07
2.11937e-07
2.11948e-07
2.11959e-07
2.1197e-07
2.11981e-07
2.11992e-07
2.12004e-07
2.21469e-07
2.11618e-07
2.11625e-07
2.11632e-07
2.1164e-07
2.11648e-07
2.11656e-07
2.11663e-07
2.11671e-07
2.1168e-07
2.11688e-07
2.11696e-07
2.11705e-07
2.11713e-07
2.11722e-07
2.11731e-07
2.1174e-07
2.11749e-07
2.11759e-07
2.11768e-07
2.11778e-07
2.11788e-07
2.21241e-07
2.11432e-07
2.11438e-07
2.11444e-07
2.1145e-07
2.11457e-07
2.11463e-07
2.1147e-07
2.11476e-07
2.11483e-07
2.1149e-07
2.11497e-07
2.11504e-07
2.11511e-07
2.11518e-07
2.11525e-07
2.11533e-07
2.11541e-07
2.11548e-07
2.11556e-07
2.11564e-07
2.11572e-07
2.21013e-07
2.11294e-07
2.11299e-07
2.11304e-07
2.1131e-07
2.11315e-07
2.1132e-07
2.11326e-07
2.11332e-07
2.11337e-07
2.11343e-07
2.11349e-07
2.11355e-07
2.11361e-07
2.11367e-07
2.11373e-07
2.11379e-07
2.11386e-07
2.11392e-07
2.11399e-07
2.11406e-07
2.11412e-07
2.20837e-07
)
;

boundaryField
{
    inlet
    {
        type            calculated;
        value           uniform 0;
    }
    outlet2
    {
        type            calculated;
        value           uniform 0;
    }
    outlet1
    {
        type            calculated;
        value           uniform 0;
    }
    wall
    {
        type            calculated;
        value           uniform 0;
    }
    symmetryBottom
    {
        type            symmetry;
    }
    symmetryZ0
    {
        type            symmetry;
    }
    symmetryZ05
    {
        type            symmetry;
    }
}


// ************************************************************************* //
