/*--------------------------------*- C++ -*----------------------------------*\
| =========                 |                                                 |
| \\      /  F ield         | OpenFOAM: The Open Source CFD Toolbox           |
|  \\    /   O peration     | Version:  2412                                  |
|   \\  /    A nd           | Website:  www.openfoam.com                      |
|    \\/     M anipulation  |                                                 |
\*---------------------------------------------------------------------------*/
FoamFile
{
    version     2.0;
    format      ascii;
    arch        "LSB;label=32;scalar=64";
    class       volScalarField;
    location    "1.07831e-06";
    object      rho_dof2;
}
// * * * * * * * * * * * * * * * * * * * * * * * * * * * * * * * * * * * * * //

dimensions      [0 0 0 0 0 0 0];

internalField   nonuniform List<scalar> 
625
(
3.92627e-09
7.00576e-09
-3.81713e-11
-2.87671e-09
8.00334e-10
-1.60357e-10
-6.07546e-10
2.85851e-09
-1.60126e-10
-6.16658e-10
2.85012e-09
-1.60127e-10
-6.16633e-10
2.85014e-09
-1.60127e-10
-6.16633e-10
2.85014e-09
-1.60127e-10
-6.16633e-10
2.85014e-09
-1.60127e-10
-6.16633e-10
2.85014e-09
-1.60127e-10
-6.16633e-10
2.85014e-09
-1.60127e-10
-6.16633e-10
2.85014e-09
-1.60127e-10
-6.16633e-10
2.85014e-09
-1.60127e-10
-6.16633e-10
2.85014e-09
-1.60127e-10
-6.16633e-10
2.85014e-09
-1.60127e-10
-6.16633e-10
2.85014e-09
-1.60127e-10
-6.16633e-10
2.85014e-09
-1.60127e-10
-6.16633e-10
2.85014e-09
-1.60127e-10
-6.16633e-10
2.85014e-09
-1.60127e-10
-6.16633e-10
2.85014e-09
-1.60127e-10
-6.16633e-10
2.85014e-09
-1.60127e-10
-6.16633e-10
2.85014e-09
-1.60127e-10
-6.16633e-10
2.85014e-09
-1.60127e-10
-6.16633e-10
2.85014e-09
-1.60127e-10
-6.16631e-10
2.85012e-09
-1.59775e-10
-6.17513e-10
2.86264e-09
1.49285e-10
-2.18673e-10
-2.3072e-10
-2.92334e-10
1.62145e-06
1.6319e-06
1.64247e-06
1.65318e-06
1.66403e-06
1.67502e-06
1.68615e-06
1.69743e-06
1.70885e-06
1.72043e-06
1.73216e-06
1.74405e-06
1.7561e-06
1.76831e-06
1.78069e-06
1.79324e-06
1.80597e-06
1.81887e-06
1.83195e-06
1.84521e-06
1.85867e-06
8.81445e-12
-5.4309e-08
-5.48761e-08
-5.54537e-08
-5.60422e-08
-5.66419e-08
-5.72531e-08
-5.78761e-08
-5.85112e-08
-5.91587e-08
-5.98191e-08
-6.04926e-08
-6.11796e-08
-6.18805e-08
-6.25957e-08
-6.33257e-08
-6.40708e-08
-6.48315e-08
-6.56082e-08
-6.64015e-08
-6.72117e-08
-6.80396e-08
-1.88594e-10
-2.90541e-08
-2.92665e-08
-2.94821e-08
-2.97008e-08
-2.99228e-08
-3.01481e-08
-3.03768e-08
-3.0609e-08
-3.08448e-08
-3.10843e-08
-3.13275e-08
-3.15745e-08
-3.18254e-08
-3.20804e-08
-3.23394e-08
-3.26027e-08
-3.28702e-08
-3.31422e-08
-3.34187e-08
-3.36999e-08
-3.39858e-08
-1.91642e-10
-2.92915e-08
-2.95046e-08
-2.97208e-08
-2.99401e-08
-3.01627e-08
-3.03886e-08
-3.0618e-08
-3.08508e-08
-3.10871e-08
-3.13271e-08
-3.15708e-08
-3.18183e-08
-3.20697e-08
-3.23251e-08
-3.25846e-08
-3.28483e-08
-3.31162e-08
-3.33885e-08
-3.36654e-08
-3.39468e-08
-3.42329e-08
-1.91446e-10
-2.95374e-08
-2.97515e-08
-2.99686e-08
-3.0189e-08
-3.04126e-08
-3.06395e-08
-3.08698e-08
-3.11036e-08
-3.1341e-08
-3.1582e-08
-3.18267e-08
-3.20752e-08
-3.23277e-08
-3.25841e-08
-3.28446e-08
-3.31093e-08
-3.33783e-08
-3.36517e-08
-3.39296e-08
-3.4212e-08
-3.44993e-08
-1.91286e-10
-2.97871e-08
-3.00021e-08
-3.02203e-08
-3.04416e-08
-3.06663e-08
-3.08942e-08
-3.11256e-08
-3.13604e-08
-3.15988e-08
-3.18409e-08
-3.20867e-08
-3.23362e-08
-3.25897e-08
-3.28472e-08
-3.31088e-08
-3.33745e-08
-3.36446e-08
-3.3919e-08
-3.41979e-08
-3.44815e-08
-3.47698e-08
-1.91126e-10
-3.00419e-08
-3.0258e-08
-3.04773e-08
-3.06998e-08
-3.09255e-08
-3.11545e-08
-3.1387e-08
-3.1623e-08
-3.18625e-08
-3.21057e-08
-3.23526e-08
-3.26033e-08
-3.28579e-08
-3.31166e-08
-3.33793e-08
-3.36462e-08
-3.39174e-08
-3.4193e-08
-3.44731e-08
-3.47578e-08
-3.50473e-08
-1.90967e-10
-3.0302e-08
-3.05192e-08
-3.07397e-08
-3.09633e-08
-3.11902e-08
-3.14205e-08
-3.16541e-08
-3.18913e-08
-3.2132e-08
-3.23764e-08
-3.26245e-08
-3.28765e-08
-3.31323e-08
-3.33922e-08
-3.36562e-08
-3.39243e-08
-3.41968e-08
-3.44736e-08
-3.4755e-08
-3.5041e-08
-3.53317e-08
-1.90807e-10
-3.05672e-08
-3.07858e-08
-3.10074e-08
-3.12323e-08
-3.14605e-08
-3.1692e-08
-3.19269e-08
-3.21653e-08
-3.24074e-08
-3.26531e-08
-3.29025e-08
-3.31557e-08
-3.3413e-08
-3.36741e-08
-3.39394e-08
-3.4209e-08
-3.44828e-08
-3.4761e-08
-3.50437e-08
-3.53311e-08
-3.56233e-08
-1.90647e-10
-3.08334e-08
-3.10532e-08
-3.12762e-08
-3.15024e-08
-3.17319e-08
-3.19648e-08
-3.2201e-08
-3.24409e-08
-3.26842e-08
-3.29313e-08
-3.31821e-08
-3.34368e-08
-3.36954e-08
-3.3958e-08
-3.42248e-08
-3.44957e-08
-3.4771e-08
-3.50507e-08
-3.53349e-08
-3.56238e-08
-3.59174e-08
-1.90419e-10
-3.0936e-08
-3.11559e-08
-3.1379e-08
-3.16054e-08
-3.1835e-08
-3.2068e-08
-3.23044e-08
-3.25443e-08
-3.27878e-08
-3.3035e-08
-3.32859e-08
-3.35407e-08
-3.37994e-08
-3.4062e-08
-3.43289e-08
-3.45999e-08
-3.48752e-08
-3.51549e-08
-3.54392e-08
-3.5728e-08
-3.60217e-08
-1.90322e-10
-3.10344e-08
-3.12544e-08
-3.14775e-08
-3.17038e-08
-3.19335e-08
-3.21664e-08
-3.24028e-08
-3.26426e-08
-3.28861e-08
-3.31332e-08
-3.3384e-08
-3.36387e-08
-3.38972e-08
-3.41598e-08
-3.44265e-08
-3.46973e-08
-3.49725e-08
-3.5252e-08
-3.55361e-08
-3.58247e-08
-3.61181e-08
-1.9042e-10
-3.1135e-08
-3.13551e-08
-3.15782e-08
-3.18046e-08
-3.20342e-08
-3.22672e-08
-3.25035e-08
-3.27434e-08
-3.29868e-08
-3.32339e-08
-3.34846e-08
-3.37392e-08
-3.39977e-08
-3.42602e-08
-3.45267e-08
-3.47975e-08
-3.50725e-08
-3.53519e-08
-3.56358e-08
-3.59242e-08
-3.62174e-08
-1.90489e-10
-3.1238e-08
-3.14581e-08
-3.16813e-08
-3.19077e-08
-3.21374e-08
-3.23703e-08
-3.26067e-08
-3.28466e-08
-3.309e-08
-3.33371e-08
-3.35879e-08
-3.38424e-08
-3.41009e-08
-3.43633e-08
-3.46298e-08
-3.49005e-08
-3.51754e-08
-3.54547e-08
-3.57384e-08
-3.60267e-08
-3.63197e-08
-1.90559e-10
-3.13432e-08
-3.15633e-08
-3.17867e-08
-3.20132e-08
-3.22429e-08
-3.2476e-08
-3.27124e-08
-3.29524e-08
-3.31958e-08
-3.34429e-08
-3.36937e-08
-3.39483e-08
-3.42067e-08
-3.44692e-08
-3.47356e-08
-3.50063e-08
-3.52811e-08
-3.55604e-08
-3.58441e-08
-3.61323e-08
-3.64252e-08
-1.90628e-10
-3.14506e-08
-3.16709e-08
-3.18944e-08
-3.2121e-08
-3.23508e-08
-3.2584e-08
-3.28206e-08
-3.30606e-08
-3.33041e-08
-3.35513e-08
-3.38022e-08
-3.40568e-08
-3.43153e-08
-3.45778e-08
-3.48443e-08
-3.51149e-08
-3.53898e-08
-3.5669e-08
-3.59526e-08
-3.62408e-08
-3.65337e-08
-1.90696e-10
-3.15603e-08
-3.17808e-08
-3.20044e-08
-3.22311e-08
-3.24612e-08
-3.26945e-08
-3.29312e-08
-3.31713e-08
-3.3415e-08
-3.36623e-08
-3.39133e-08
-3.4168e-08
-3.44266e-08
-3.46891e-08
-3.49557e-08
-3.52264e-08
-3.55013e-08
-3.57805e-08
-3.60642e-08
-3.63524e-08
-3.66452e-08
-1.90765e-10
-3.16722e-08
-3.18929e-08
-3.21167e-08
-3.23437e-08
-3.25739e-08
-3.28074e-08
-3.30442e-08
-3.32846e-08
-3.35284e-08
-3.37758e-08
-3.40269e-08
-3.42818e-08
-3.45405e-08
-3.48032e-08
-3.50699e-08
-3.53406e-08
-3.56156e-08
-3.5895e-08
-3.61787e-08
-3.6467e-08
-3.67599e-08
-1.90833e-10
-3.17864e-08
-3.20073e-08
-3.22314e-08
-3.24585e-08
-3.26889e-08
-3.29227e-08
-3.31597e-08
-3.34003e-08
-3.36443e-08
-3.38919e-08
-3.41432e-08
-3.43983e-08
-3.46571e-08
-3.492e-08
-3.51868e-08
-3.54577e-08
-3.57329e-08
-3.60123e-08
-3.62962e-08
-3.65845e-08
-3.68775e-08
-1.90901e-10
-3.19028e-08
-3.2124e-08
-3.23483e-08
-3.25757e-08
-3.28064e-08
-3.30404e-08
-3.32777e-08
-3.35184e-08
-3.37627e-08
-3.40106e-08
-3.42621e-08
-3.45173e-08
-3.47765e-08
-3.50395e-08
-3.53065e-08
-3.55776e-08
-3.58529e-08
-3.61326e-08
-3.64166e-08
-3.67051e-08
-3.69982e-08
-1.90969e-10
-3.20214e-08
-3.22429e-08
-3.24675e-08
-3.26953e-08
-3.29262e-08
-3.31605e-08
-3.33981e-08
-3.36391e-08
-3.38837e-08
-3.41318e-08
-3.43836e-08
-3.46391e-08
-3.48984e-08
-3.51617e-08
-3.5429e-08
-3.57003e-08
-3.59759e-08
-3.62557e-08
-3.65399e-08
-3.68286e-08
-3.71219e-08
-1.91036e-10
-3.21423e-08
-3.23641e-08
-3.2589e-08
-3.28171e-08
-3.30484e-08
-3.3283e-08
-3.35209e-08
-3.37623e-08
-3.40071e-08
-3.42555e-08
-3.45076e-08
-3.47634e-08
-3.50231e-08
-3.52866e-08
-3.55542e-08
-3.58258e-08
-3.61016e-08
-3.63817e-08
-3.66662e-08
-3.69551e-08
-3.72487e-08
-1.91103e-10
-3.22654e-08
-3.24876e-08
-3.27129e-08
-3.29413e-08
-3.3173e-08
-3.34079e-08
-3.36462e-08
-3.38879e-08
-3.41331e-08
-3.43818e-08
-3.46343e-08
-3.48904e-08
-3.51504e-08
-3.54143e-08
-3.56821e-08
-3.59541e-08
-3.62302e-08
-3.65107e-08
-3.67954e-08
-3.70847e-08
-3.73785e-08
-1.9117e-10
-3.23789e-08
-3.26014e-08
-3.28269e-08
-3.30556e-08
-3.32874e-08
-3.35226e-08
-3.3761e-08
-3.4003e-08
-3.42483e-08
-3.44973e-08
-3.47499e-08
-3.50062e-08
-3.52664e-08
-3.55304e-08
-3.57985e-08
-3.60706e-08
-3.63469e-08
-3.66274e-08
-3.69123e-08
-3.72016e-08
-3.74956e-08
-1.9125e-10
-3.53335e-08
-3.55763e-08
-3.58225e-08
-3.60722e-08
-3.63254e-08
-3.65821e-08
-3.68425e-08
-3.71066e-08
-3.73745e-08
-3.76464e-08
-3.79222e-08
-3.82021e-08
-3.84861e-08
-3.87744e-08
-3.90671e-08
-3.93642e-08
-3.96659e-08
-3.99722e-08
-4.02833e-08
-4.05993e-08
-4.09202e-08
-1.94705e-10
)
;

boundaryField
{
    inlet
    {
        type            calculated;
        value           uniform 0;
    }
    outlet2
    {
        type            calculated;
        value           uniform 0;
    }
    outlet1
    {
        type            calculated;
        value           uniform 0;
    }
    wall
    {
        type            calculated;
        value           uniform 0;
    }
    symmetryBottom
    {
        type            symmetry;
    }
    symmetryZ0
    {
        type            symmetry;
    }
    symmetryZ05
    {
        type            symmetry;
    }
}


// ************************************************************************* //
