/*--------------------------------*- C++ -*----------------------------------*\
| =========                 |                                                 |
| \\      /  F ield         | OpenFOAM: The Open Source CFD Toolbox           |
|  \\    /   O peration     | Version:  2412                                  |
|   \\  /    A nd           | Website:  www.openfoam.com                      |
|    \\/     M anipulation  |                                                 |
\*---------------------------------------------------------------------------*/
FoamFile
{
    version     2.0;
    format      ascii;
    arch        "LSB;label=32;scalar=64";
    class       volScalarField;
    location    "1.07831e-06";
    object      rho_dof0;
}
// * * * * * * * * * * * * * * * * * * * * * * * * * * * * * * * * * * * * * //

dimensions      [0 0 0 0 0 0 0];

internalField   nonuniform List<scalar> 
625
(
2.86273e-05
2.36782e-05
2.36782e-05
2.86281e-05
2.36789e-05
2.36789e-05
2.86274e-05
2.36782e-05
2.36782e-05
2.86274e-05
2.36782e-05
2.36782e-05
2.86274e-05
2.36782e-05
2.36782e-05
2.86274e-05
2.36782e-05
2.36782e-05
2.86274e-05
2.36782e-05
2.36782e-05
2.86274e-05
2.36782e-05
2.36782e-05
2.86274e-05
2.36782e-05
2.36782e-05
2.86274e-05
2.36782e-05
2.36782e-05
2.86274e-05
2.36782e-05
2.36782e-05
2.86274e-05
2.36782e-05
2.36782e-05
2.86274e-05
2.36782e-05
2.36782e-05
2.86274e-05
2.36782e-05
2.36782e-05
2.86274e-05
2.36782e-05
2.36782e-05
2.86274e-05
2.36782e-05
2.36782e-05
2.86274e-05
2.36782e-05
2.36782e-05
2.86274e-05
2.36782e-05
2.36782e-05
2.86274e-05
2.36782e-05
2.36782e-05
2.86274e-05
2.36782e-05
2.36782e-05
2.86274e-05
2.36782e-05
2.36782e-05
2.86274e-05
2.36782e-05
2.36782e-05
2.86274e-05
2.36782e-05
2.36782e-05
2.86274e-05
2.36782e-05
2.36782e-05
2.86276e-05
2.36772e-05
2.36772e-05
2.44695e-05
2.447e-05
2.44705e-05
2.4471e-05
2.44715e-05
2.4472e-05
2.44725e-05
2.44731e-05
2.44736e-05
2.44742e-05
2.44748e-05
2.44754e-05
2.4476e-05
2.44767e-05
2.44773e-05
2.4478e-05
2.44787e-05
2.44794e-05
2.44801e-05
2.44809e-05
2.44817e-05
2.4509e-05
2.50038e-05
2.50078e-05
2.50118e-05
2.50159e-05
2.50201e-05
2.50243e-05
2.50285e-05
2.50329e-05
2.50373e-05
2.50417e-05
2.50463e-05
2.50509e-05
2.50556e-05
2.50603e-05
2.50651e-05
2.507e-05
2.5075e-05
2.508e-05
2.50852e-05
2.50904e-05
2.50957e-05
2.51237e-05
2.49712e-05
2.49749e-05
2.49786e-05
2.49824e-05
2.49863e-05
2.49902e-05
2.49941e-05
2.49981e-05
2.50022e-05
2.50063e-05
2.50105e-05
2.50148e-05
2.50191e-05
2.50235e-05
2.5028e-05
2.50325e-05
2.50371e-05
2.50418e-05
2.50465e-05
2.50513e-05
2.50562e-05
2.50842e-05
2.49471e-05
2.49506e-05
2.49542e-05
2.49578e-05
2.49615e-05
2.49652e-05
2.4969e-05
2.49728e-05
2.49767e-05
2.49806e-05
2.49846e-05
2.49887e-05
2.49928e-05
2.4997e-05
2.50013e-05
2.50056e-05
2.501e-05
2.50144e-05
2.50189e-05
2.50235e-05
2.50282e-05
2.50562e-05
2.4923e-05
2.49264e-05
2.49298e-05
2.49332e-05
2.49367e-05
2.49402e-05
2.49438e-05
2.49475e-05
2.49512e-05
2.49549e-05
2.49587e-05
2.49626e-05
2.49665e-05
2.49705e-05
2.49746e-05
2.49787e-05
2.49828e-05
2.49871e-05
2.49914e-05
2.49958e-05
2.50002e-05
2.50281e-05
2.4899e-05
2.49021e-05
2.49054e-05
2.49086e-05
2.49119e-05
2.49153e-05
2.49187e-05
2.49222e-05
2.49257e-05
2.49293e-05
2.49329e-05
2.49365e-05
2.49403e-05
2.49441e-05
2.49479e-05
2.49518e-05
2.49558e-05
2.49598e-05
2.49639e-05
2.4968e-05
2.49722e-05
2.50001e-05
2.48749e-05
2.48779e-05
2.4881e-05
2.48841e-05
2.48872e-05
2.48904e-05
2.48936e-05
2.48969e-05
2.49002e-05
2.49036e-05
2.4907e-05
2.49105e-05
2.4914e-05
2.49176e-05
2.49213e-05
2.49249e-05
2.49287e-05
2.49325e-05
2.49364e-05
2.49403e-05
2.49443e-05
2.49722e-05
2.48509e-05
2.48537e-05
2.48566e-05
2.48595e-05
2.48625e-05
2.48655e-05
2.48686e-05
2.48717e-05
2.48748e-05
2.4878e-05
2.48812e-05
2.48845e-05
2.48878e-05
2.48912e-05
2.48946e-05
2.48981e-05
2.49017e-05
2.49053e-05
2.49089e-05
2.49126e-05
2.49164e-05
2.49442e-05
2.48269e-05
2.48296e-05
2.48323e-05
2.4835e-05
2.48378e-05
2.48406e-05
2.48435e-05
2.48464e-05
2.48494e-05
2.48524e-05
2.48554e-05
2.48585e-05
2.48616e-05
2.48648e-05
2.4868e-05
2.48713e-05
2.48747e-05
2.4878e-05
2.48815e-05
2.4885e-05
2.48885e-05
2.49163e-05
2.48029e-05
2.48054e-05
2.4808e-05
2.48105e-05
2.48132e-05
2.48158e-05
2.48185e-05
2.48212e-05
2.4824e-05
2.48268e-05
2.48296e-05
2.48325e-05
2.48355e-05
2.48385e-05
2.48415e-05
2.48446e-05
2.48477e-05
2.48508e-05
2.48541e-05
2.48573e-05
2.48607e-05
2.48885e-05
2.4779e-05
2.47814e-05
2.47837e-05
2.47861e-05
2.47886e-05
2.4791e-05
2.47935e-05
2.47961e-05
2.47987e-05
2.48013e-05
2.4804e-05
2.48067e-05
2.48094e-05
2.48122e-05
2.4815e-05
2.48179e-05
2.48208e-05
2.48237e-05
2.48267e-05
2.48298e-05
2.48329e-05
2.48607e-05
2.47551e-05
2.47573e-05
2.47595e-05
2.47617e-05
2.4764e-05
2.47663e-05
2.47686e-05
2.4771e-05
2.47734e-05
2.47758e-05
2.47783e-05
2.47808e-05
2.47833e-05
2.47859e-05
2.47885e-05
2.47912e-05
2.47939e-05
2.47967e-05
2.47994e-05
2.48023e-05
2.48052e-05
2.48329e-05
2.47313e-05
2.47333e-05
2.47353e-05
2.47374e-05
2.47395e-05
2.47416e-05
2.47437e-05
2.47459e-05
2.47481e-05
2.47504e-05
2.47526e-05
2.4755e-05
2.47573e-05
2.47597e-05
2.47621e-05
2.47646e-05
2.47671e-05
2.47696e-05
2.47722e-05
2.47748e-05
2.47775e-05
2.48052e-05
2.47074e-05
2.47093e-05
2.47111e-05
2.4713e-05
2.47149e-05
2.47169e-05
2.47188e-05
2.47208e-05
2.47229e-05
2.47249e-05
2.4727e-05
2.47291e-05
2.47313e-05
2.47335e-05
2.47357e-05
2.4738e-05
2.47403e-05
2.47426e-05
2.47449e-05
2.47473e-05
2.47498e-05
2.47775e-05
2.46836e-05
2.46853e-05
2.4687e-05
2.46887e-05
2.46904e-05
2.46922e-05
2.4694e-05
2.46958e-05
2.46977e-05
2.46995e-05
2.47014e-05
2.47034e-05
2.47053e-05
2.47073e-05
2.47093e-05
2.47114e-05
2.47135e-05
2.47156e-05
2.47177e-05
2.47199e-05
2.47221e-05
2.47498e-05
2.46598e-05
2.46613e-05
2.46628e-05
2.46644e-05
2.46659e-05
2.46675e-05
2.46692e-05
2.46708e-05
2.46725e-05
2.46741e-05
2.46759e-05
2.46776e-05
2.46794e-05
2.46812e-05
2.4683e-05
2.46848e-05
2.46867e-05
2.46886e-05
2.46905e-05
2.46925e-05
2.46945e-05
2.47221e-05
2.4636e-05
2.46374e-05
2.46387e-05
2.46401e-05
2.46415e-05
2.46429e-05
2.46443e-05
2.46458e-05
2.46473e-05
2.46488e-05
2.46503e-05
2.46519e-05
2.46534e-05
2.4655e-05
2.46566e-05
2.46583e-05
2.466e-05
2.46617e-05
2.46634e-05
2.46651e-05
2.46669e-05
2.46945e-05
2.46123e-05
2.46134e-05
2.46146e-05
2.46158e-05
2.46171e-05
2.46183e-05
2.46196e-05
2.46208e-05
2.46221e-05
2.46234e-05
2.46248e-05
2.46261e-05
2.46275e-05
2.46289e-05
2.46303e-05
2.46318e-05
2.46332e-05
2.46347e-05
2.46362e-05
2.46378e-05
2.46393e-05
2.46669e-05
2.45885e-05
2.45895e-05
2.45905e-05
2.45916e-05
2.45926e-05
2.45937e-05
2.45948e-05
2.45959e-05
2.4597e-05
2.45981e-05
2.45993e-05
2.46005e-05
2.46016e-05
2.46028e-05
2.46041e-05
2.46053e-05
2.46066e-05
2.46078e-05
2.46091e-05
2.46104e-05
2.46118e-05
2.46393e-05
2.45648e-05
2.45656e-05
2.45665e-05
2.45674e-05
2.45682e-05
2.45691e-05
2.457e-05
2.4571e-05
2.45719e-05
2.45728e-05
2.45738e-05
2.45748e-05
2.45758e-05
2.45768e-05
2.45778e-05
2.45788e-05
2.45799e-05
2.4581e-05
2.4582e-05
2.45832e-05
2.45843e-05
2.46118e-05
2.45411e-05
2.45418e-05
2.45425e-05
2.45432e-05
2.45439e-05
2.45446e-05
2.45453e-05
2.45461e-05
2.45468e-05
2.45476e-05
2.45484e-05
2.45491e-05
2.45499e-05
2.45507e-05
2.45516e-05
2.45524e-05
2.45533e-05
2.45541e-05
2.4555e-05
2.45559e-05
2.45568e-05
2.45843e-05
2.45174e-05
2.45179e-05
2.45185e-05
2.4519e-05
2.45195e-05
2.45201e-05
2.45206e-05
2.45212e-05
2.45218e-05
2.45223e-05
2.45229e-05
2.45235e-05
2.45241e-05
2.45247e-05
2.45254e-05
2.4526e-05
2.45266e-05
2.45273e-05
2.4528e-05
2.45286e-05
2.45293e-05
2.45568e-05
2.44938e-05
2.44941e-05
2.44945e-05
2.44948e-05
2.44952e-05
2.44956e-05
2.44959e-05
2.44963e-05
2.44967e-05
2.44971e-05
2.44975e-05
2.44979e-05
2.44983e-05
2.44988e-05
2.44992e-05
2.44996e-05
2.45001e-05
2.45005e-05
2.4501e-05
2.45014e-05
2.45019e-05
2.45293e-05
2.44701e-05
2.44703e-05
2.44705e-05
2.44707e-05
2.44709e-05
2.44711e-05
2.44713e-05
2.44715e-05
2.44717e-05
2.44719e-05
2.44721e-05
2.44724e-05
2.44726e-05
2.44728e-05
2.4473e-05
2.44733e-05
2.44735e-05
2.44738e-05
2.4474e-05
2.44742e-05
2.44745e-05
2.45019e-05
2.44456e-05
2.44456e-05
2.44456e-05
2.44456e-05
2.44456e-05
2.44457e-05
2.44457e-05
2.44457e-05
2.44457e-05
2.44457e-05
2.44458e-05
2.44458e-05
2.44458e-05
2.44458e-05
2.44459e-05
2.44459e-05
2.44459e-05
2.44459e-05
2.4446e-05
2.4446e-05
2.4446e-05
2.44734e-05
)
;

boundaryField
{
    inlet
    {
        type            calculated;
        value           uniform 2.81085e-05;
    }
    outlet2
    {
        type            calculated;
        value           uniform 2.81085e-05;
    }
    outlet1
    {
        type            calculated;
        value           uniform 2.81085e-05;
    }
    wall
    {
        type            calculated;
        value           uniform 2.81085e-05;
    }
    symmetryBottom
    {
        type            symmetry;
    }
    symmetryZ0
    {
        type            symmetry;
    }
    symmetryZ05
    {
        type            symmetry;
    }
}


// ************************************************************************* //
