/*--------------------------------*- C++ -*----------------------------------*\
| =========                 |                                                 |
| \\      /  F ield         | OpenFOAM: The Open Source CFD Toolbox           |
|  \\    /   O peration     | Version:  2412                                  |
|   \\  /    A nd           | Website:  www.openfoam.com                      |
|    \\/     M anipulation  |                                                 |
\*---------------------------------------------------------------------------*/
FoamFile
{
    version     2.0;
    format      ascii;
    arch        "LSB;label=32;scalar=64";
    class       volVectorField;
    location    "1.07831e-06";
    object      rhoU_dof3;
}
// * * * * * * * * * * * * * * * * * * * * * * * * * * * * * * * * * * * * * //

dimensions      [0 0 0 0 0 0 0];

internalField   nonuniform List<vector> 
625
(
(0.00061436 7.80557e-09 -0.000676468)
(0.000541502 5.93334e-09 -0.000595927)
(0.000462261 4.04956e-09 2.06509e-11)
(0.000614375 -4.65729e-07 -0.000676504)
(0.000541516 -4.2177e-07 -0.000595961)
(0.000462273 -3.66123e-07 -2.64958e-12)
(0.000614375 -4.65758e-07 -0.000676483)
(0.000541516 -4.21794e-07 -0.000595942)
(0.000462273 -3.66104e-07 -3.2864e-12)
(0.000614375 -4.65759e-07 -0.000676483)
(0.000541516 -4.21795e-07 -0.000595942)
(0.000462273 -3.66106e-07 -3.28558e-12)
(0.000614375 -4.65759e-07 -0.000676483)
(0.000541516 -4.21795e-07 -0.000595942)
(0.000462273 -3.66106e-07 -3.28558e-12)
(0.000614375 -4.65759e-07 -0.000676483)
(0.000541516 -4.21795e-07 -0.000595942)
(0.000462273 -3.66106e-07 -3.28558e-12)
(0.000614375 -4.65759e-07 -0.000676483)
(0.000541516 -4.21795e-07 -0.000595942)
(0.000462273 -3.66106e-07 -3.28558e-12)
(0.000614375 -4.65759e-07 -0.000676483)
(0.000541516 -4.21795e-07 -0.000595942)
(0.000462273 -3.66106e-07 -3.28558e-12)
(0.000614375 -4.65759e-07 -0.000676483)
(0.000541516 -4.21795e-07 -0.000595942)
(0.000462273 -3.66106e-07 -3.28558e-12)
(0.000614375 -4.65759e-07 -0.000676483)
(0.000541516 -4.21795e-07 -0.000595942)
(0.000462273 -3.66106e-07 -3.28558e-12)
(0.000614375 -4.65759e-07 -0.000676483)
(0.000541516 -4.21795e-07 -0.000595942)
(0.000462273 -3.66106e-07 -3.28558e-12)
(0.000614375 -4.65759e-07 -0.000676483)
(0.000541516 -4.21795e-07 -0.000595942)
(0.000462273 -3.66106e-07 -3.28558e-12)
(0.000614375 -4.65759e-07 -0.000676483)
(0.000541516 -4.21795e-07 -0.000595942)
(0.000462273 -3.66106e-07 -3.28558e-12)
(0.000614375 -4.65759e-07 -0.000676483)
(0.000541516 -4.21795e-07 -0.000595942)
(0.000462273 -3.66106e-07 -3.28558e-12)
(0.000614375 -4.65759e-07 -0.000676483)
(0.000541516 -4.21795e-07 -0.000595942)
(0.000462273 -3.66106e-07 -3.28558e-12)
(0.000614375 -4.65759e-07 -0.000676483)
(0.000541516 -4.21795e-07 -0.000595942)
(0.000462273 -3.66106e-07 -3.28558e-12)
(0.000614375 -4.65759e-07 -0.000676483)
(0.000541516 -4.21795e-07 -0.000595942)
(0.000462273 -3.66106e-07 -3.28558e-12)
(0.000614375 -4.65759e-07 -0.000676483)
(0.000541516 -4.21795e-07 -0.000595942)
(0.000462273 -3.66106e-07 -3.28558e-12)
(0.000614375 -4.65759e-07 -0.000676483)
(0.000541516 -4.21795e-07 -0.000595942)
(0.000462273 -3.66106e-07 -3.28558e-12)
(0.000614375 -4.65759e-07 -0.000676483)
(0.000541516 -4.21795e-07 -0.000595942)
(0.000462273 -3.66106e-07 -3.28558e-12)
(0.000614375 -4.65759e-07 -0.000676483)
(0.000541516 -4.21795e-07 -0.000595942)
(0.000462273 -3.66106e-07 -3.28558e-12)
(0.000614375 -4.65759e-07 -0.000676483)
(0.000541516 -4.21795e-07 -0.000595942)
(0.000462273 -3.66106e-07 -3.28658e-12)
(0.000614375 -4.65759e-07 -0.000676483)
(0.000541516 -4.21795e-07 -0.000595942)
(0.000462272 -3.6605e-07 -5.97232e-12)
(0.000614375 -4.65782e-07 -0.000676483)
(0.000541516 -4.21817e-07 -0.000595942)
(0.000461626 -3.27153e-07 -3.76633e-09)
(0.000614527 -4.74959e-07 -0.000676639)
(0.000541635 -4.29012e-07 -0.000596062)
(0.000540677 -3.68946e-07 -0.000596062)
(0.000557162 4.10934e-08 -0.000670019)
(0.000557156 4.15865e-08 -0.000670475)
(0.00055715 4.20898e-08 -0.000670939)
(0.000557144 4.26036e-08 -0.00067141)
(0.000557137 4.31283e-08 -0.000671889)
(0.000557131 4.36642e-08 -0.000672376)
(0.000557124 4.42115e-08 -0.000672871)
(0.000557118 4.47707e-08 -0.000673375)
(0.000557111 4.53422e-08 -0.000673887)
(0.000557104 4.59261e-08 -0.000674408)
(0.000557097 4.65231e-08 -0.000674938)
(0.00055709 4.71335e-08 -0.000675478)
(0.000557083 4.77576e-08 -0.000676027)
(0.000557076 4.83959e-08 -0.000676586)
(0.000557068 4.9049e-08 -0.000677155)
(0.000557061 4.97171e-08 -0.000677734)
(0.000557053 5.0401e-08 -0.000678324)
(0.000557045 5.11009e-08 -0.000678925)
(0.000557037 5.18176e-08 -0.000679537)
(0.000557029 5.25515e-08 -0.00068016)
(0.000557021 5.33032e-08 -0.000680796)
(0.000581506 5.44304e-08 -2.94613e-11)
(0.000571253 -4.36888e-07 -0.000628237)
(0.000571346 -4.39963e-07 -0.000628336)
(0.00057144 -4.43081e-07 -0.000628436)
(0.000571535 -4.46244e-07 -0.000628538)
(0.000571632 -4.49452e-07 -0.000628641)
(0.00057173 -4.52706e-07 -0.000628745)
(0.000571829 -4.56008e-07 -0.000628851)
(0.00057193 -4.59359e-07 -0.000628958)
(0.000572032 -4.62759e-07 -0.000629067)
(0.000572136 -4.66209e-07 -0.000629178)
(0.000572242 -4.69712e-07 -0.00062929)
(0.000572349 -4.73267e-07 -0.000629404)
(0.000572457 -4.76877e-07 -0.00062952)
(0.000572567 -4.80542e-07 -0.000629637)
(0.000572679 -4.84264e-07 -0.000629756)
(0.000572793 -4.88044e-07 -0.000629877)
(0.000572909 -4.91883e-07 -0.00063)
(0.000573026 -4.95783e-07 -0.000630125)
(0.000573145 -4.99745e-07 -0.000630251)
(0.000573266 -5.03771e-07 -0.00063038)
(0.000573389 -5.07863e-07 -0.000630511)
(0.000598711 -5.37739e-07 -1.69347e-11)
(0.000570757 -4.37363e-07 -0.000627811)
(0.000570846 -4.40447e-07 -0.000627908)
(0.000570936 -4.43575e-07 -0.000628006)
(0.000571028 -4.46747e-07 -0.000628106)
(0.000571121 -4.49965e-07 -0.000628206)
(0.000571215 -4.5323e-07 -0.000628309)
(0.000571311 -4.56542e-07 -0.000628413)
(0.000571408 -4.59903e-07 -0.000628518)
(0.000571507 -4.63315e-07 -0.000628625)
(0.000571606 -4.66777e-07 -0.000628733)
(0.000571708 -4.70291e-07 -0.000628843)
(0.000571811 -4.73858e-07 -0.000628955)
(0.000571915 -4.7748e-07 -0.000629069)
(0.000572022 -4.81158e-07 -0.000629184)
(0.000572129 -4.84893e-07 -0.000629301)
(0.000572239 -4.88687e-07 -0.000629419)
(0.00057235 -4.9254e-07 -0.00062954)
(0.000572463 -4.96454e-07 -0.000629663)
(0.000572577 -5.00431e-07 -0.000629787)
(0.000572694 -5.04473e-07 -0.000629913)
(0.000572812 -5.0858e-07 -0.000630042)
(0.000598092 -5.39479e-07 -1.60079e-11)
(0.000570262 -4.36965e-07 -0.000627266)
(0.000570348 -4.40043e-07 -0.000627359)
(0.000570435 -4.43164e-07 -0.000627453)
(0.000570523 -4.4633e-07 -0.000627548)
(0.000570612 -4.49541e-07 -0.000627645)
(0.000570703 -4.52799e-07 -0.000627743)
(0.000570794 -4.56105e-07 -0.000627843)
(0.000570888 -4.59459e-07 -0.000627944)
(0.000570982 -4.62863e-07 -0.000628047)
(0.000571078 -4.66317e-07 -0.000628151)
(0.000571176 -4.69824e-07 -0.000628256)
(0.000571275 -4.73383e-07 -0.000628364)
(0.000571375 -4.76997e-07 -0.000628473)
(0.000571477 -4.80667e-07 -0.000628583)
(0.000571581 -4.84393e-07 -0.000628695)
(0.000571686 -4.88178e-07 -0.000628809)
(0.000571793 -4.92022e-07 -0.000628925)
(0.000571901 -4.95927e-07 -0.000629043)
(0.000572011 -4.99895e-07 -0.000629162)
(0.000572123 -5.03927e-07 -0.000629284)
(0.000572237 -5.08024e-07 -0.000629407)
(0.000597483 -5.38876e-07 -1.55626e-11)
(0.000569768 -4.36649e-07 -0.000626723)
(0.00056985 -4.39722e-07 -0.000626812)
(0.000569933 -4.42838e-07 -0.000626902)
(0.000570018 -4.46e-07 -0.000626994)
(0.000570103 -4.49206e-07 -0.000627087)
(0.00057019 -4.52459e-07 -0.000627181)
(0.000570278 -4.5576e-07 -0.000627277)
(0.000570368 -4.59109e-07 -0.000627374)
(0.000570459 -4.62508e-07 -0.000627472)
(0.000570551 -4.65957e-07 -0.000627572)
(0.000570644 -4.69458e-07 -0.000627673)
(0.000570739 -4.73012e-07 -0.000627776)
(0.000570835 -4.7662e-07 -0.00062788)
(0.000570933 -4.80284e-07 -0.000627986)
(0.000571033 -4.84005e-07 -0.000628094)
(0.000571133 -4.87784e-07 -0.000628203)
(0.000571236 -4.91622e-07 -0.000628314)
(0.00057134 -4.95521e-07 -0.000628427)
(0.000571446 -4.99482e-07 -0.000628541)
(0.000571553 -5.03507e-07 -0.000628658)
(0.000571662 -5.07597e-07 -0.000628776)
(0.000596874 -5.38417e-07 -1.5053e-11)
(0.000569273 -4.36332e-07 -0.000626181)
(0.000569352 -4.394e-07 -0.000626266)
(0.000569432 -4.42513e-07 -0.000626353)
(0.000569513 -4.45669e-07 -0.00062644)
(0.000569595 -4.48871e-07 -0.000626529)
(0.000569678 -4.52119e-07 -0.000626619)
(0.000569763 -4.55415e-07 -0.000626711)
(0.000569848 -4.58759e-07 -0.000626803)
(0.000569935 -4.62153e-07 -0.000626898)
(0.000570023 -4.65597e-07 -0.000626993)
(0.000570113 -4.69092e-07 -0.00062709)
(0.000570204 -4.72641e-07 -0.000627188)
(0.000570296 -4.76244e-07 -0.000627288)
(0.00057039 -4.79902e-07 -0.00062739)
(0.000570485 -4.83616e-07 -0.000627493)
(0.000570581 -4.87389e-07 -0.000627597)
(0.00057068 -4.91221e-07 -0.000627704)
(0.000570779 -4.95114e-07 -0.000627812)
(0.00057088 -4.99068e-07 -0.000627921)
(0.000570983 -5.03087e-07 -0.000628033)
(0.000571088 -5.07171e-07 -0.000628146)
(0.000596266 -5.37957e-07 -1.45442e-11)
(0.00056878 -4.36015e-07 -0.000625639)
(0.000568855 -4.39079e-07 -0.00062572)
(0.000568931 -4.42187e-07 -0.000625803)
(0.000569008 -4.45339e-07 -0.000625887)
(0.000569087 -4.48536e-07 -0.000625972)
(0.000569166 -4.5178e-07 -0.000626058)
(0.000569247 -4.5507e-07 -0.000626145)
(0.000569329 -4.58409e-07 -0.000626234)
(0.000569412 -4.61798e-07 -0.000626324)
(0.000569497 -4.65236e-07 -0.000626415)
(0.000569582 -4.68727e-07 -0.000626508)
(0.000569669 -4.7227e-07 -0.000626602)
(0.000569757 -4.75867e-07 -0.000626697)
(0.000569847 -4.79519e-07 -0.000626794)
(0.000569938 -4.83228e-07 -0.000626892)
(0.00057003 -4.86995e-07 -0.000626992)
(0.000570124 -4.90821e-07 -0.000627094)
(0.000570219 -4.94707e-07 -0.000627197)
(0.000570316 -4.98655e-07 -0.000627301)
(0.000570414 -5.02667e-07 -0.000627408)
(0.000570514 -5.06744e-07 -0.000627516)
(0.000595658 -5.37498e-07 -1.40353e-11)
(0.000568286 -4.35699e-07 -0.000625098)
(0.000568358 -4.38758e-07 -0.000625175)
(0.000568431 -4.41862e-07 -0.000625254)
(0.000568505 -4.45009e-07 -0.000625334)
(0.000568579 -4.48201e-07 -0.000625415)
(0.000568655 -4.5144e-07 -0.000625497)
(0.000568732 -4.54726e-07 -0.00062558)
(0.00056881 -4.5806e-07 -0.000625664)
(0.00056889 -4.61443e-07 -0.00062575)
(0.00056897 -4.64877e-07 -0.000625837)
(0.000569052 -4.68362e-07 -0.000625925)
(0.000569135 -4.71899e-07 -0.000626015)
(0.000569219 -4.75491e-07 -0.000626106)
(0.000569304 -4.79137e-07 -0.000626198)
(0.000569391 -4.8284e-07 -0.000626292)
(0.000569479 -4.86601e-07 -0.000626387)
(0.000569568 -4.9042e-07 -0.000626484)
(0.000569659 -4.943e-07 -0.000626582)
(0.000569751 -4.98242e-07 -0.000626682)
(0.000569845 -5.02248e-07 -0.000626784)
(0.00056994 -5.06318e-07 -0.000626887)
(0.00059505 -5.37039e-07 -1.35265e-11)
(0.000567793 -4.35382e-07 -0.000624557)
(0.000567862 -4.38438e-07 -0.00062463)
(0.000567931 -4.41536e-07 -0.000624705)
(0.000568001 -4.44679e-07 -0.000624781)
(0.000568072 -4.47867e-07 -0.000624858)
(0.000568144 -4.51101e-07 -0.000624936)
(0.000568218 -4.54382e-07 -0.000625015)
(0.000568292 -4.57711e-07 -0.000625096)
(0.000568367 -4.61089e-07 -0.000625177)
(0.000568444 -4.64517e-07 -0.00062526)
(0.000568522 -4.67997e-07 -0.000625344)
(0.000568601 -4.71529e-07 -0.000625429)
(0.000568681 -4.75115e-07 -0.000625516)
(0.000568762 -4.78755e-07 -0.000625603)
(0.000568844 -4.82452e-07 -0.000625693)
(0.000568928 -4.86207e-07 -0.000625783)
(0.000569013 -4.90021e-07 -0.000625875)
(0.0005691 -4.93894e-07 -0.000625969)
(0.000569188 -4.9783e-07 -0.000626063)
(0.000569277 -5.01828e-07 -0.00062616)
(0.000569367 -5.05892e-07 -0.000626258)
(0.000594443 -5.36581e-07 -1.30181e-11)
(0.0005673 -4.35081e-07 -0.000624016)
(0.000567365 -4.38132e-07 -0.000624086)
(0.000567431 -4.41226e-07 -0.000624157)
(0.000567497 -4.44364e-07 -0.000624229)
(0.000567565 -4.47547e-07 -0.000624302)
(0.000567634 -4.50776e-07 -0.000624376)
(0.000567703 -4.54052e-07 -0.000624451)
(0.000567774 -4.57376e-07 -0.000624527)
(0.000567845 -4.60749e-07 -0.000624604)
(0.000567918 -4.64172e-07 -0.000624683)
(0.000567992 -4.67646e-07 -0.000624762)
(0.000568067 -4.71173e-07 -0.000624843)
(0.000568143 -4.74753e-07 -0.000624925)
(0.00056822 -4.78389e-07 -0.000625009)
(0.000568298 -4.8208e-07 -0.000625093)
(0.000568378 -4.85828e-07 -0.000625179)
(0.000568459 -4.89636e-07 -0.000625266)
(0.000568541 -4.93503e-07 -0.000625355)
(0.000568624 -4.97432e-07 -0.000625445)
(0.000568709 -5.01425e-07 -0.000625536)
(0.000568795 -5.05481e-07 -0.000625629)
(0.000593837 -5.36137e-07 -1.25056e-11)
(0.0005668 -4.35259e-07 -0.000623467)
(0.000566861 -4.38309e-07 -0.000623533)
(0.000566923 -4.41402e-07 -0.0006236)
(0.000566986 -4.44539e-07 -0.000623668)
(0.00056705 -4.47721e-07 -0.000623737)
(0.000567115 -4.50948e-07 -0.000623807)
(0.000567181 -4.54223e-07 -0.000623878)
(0.000567248 -4.57545e-07 -0.00062395)
(0.000567315 -4.60917e-07 -0.000624023)
(0.000567384 -4.64338e-07 -0.000624097)
(0.000567454 -4.67811e-07 -0.000624173)
(0.000567525 -4.71336e-07 -0.000624249)
(0.000567596 -4.74915e-07 -0.000624326)
(0.000567669 -4.78548e-07 -0.000624405)
(0.000567743 -4.82237e-07 -0.000624485)
(0.000567819 -4.85984e-07 -0.000624566)
(0.000567895 -4.89789e-07 -0.000624649)
(0.000567973 -4.93654e-07 -0.000624733)
(0.000568052 -4.97581e-07 -0.000624818)
(0.000568132 -5.01571e-07 -0.000624904)
(0.000568213 -5.05625e-07 -0.000624992)
(0.000593222 -5.36201e-07 -1.01934e-11)
(0.000566299 -4.35437e-07 -0.000622918)
(0.000566357 -4.38486e-07 -0.000622981)
(0.000566416 -4.41578e-07 -0.000623044)
(0.000566475 -4.44714e-07 -0.000623108)
(0.000566535 -4.47894e-07 -0.000623173)
(0.000566597 -4.51121e-07 -0.000623239)
(0.000566659 -4.54394e-07 -0.000623306)
(0.000566722 -4.57715e-07 -0.000623373)
(0.000566785 -4.61085e-07 -0.000623442)
(0.00056685 -4.64506e-07 -0.000623512)
(0.000566916 -4.67977e-07 -0.000623583)
(0.000566983 -4.715e-07 -0.000623655)
(0.000567051 -4.75077e-07 -0.000623728)
(0.000567119 -4.78709e-07 -0.000623802)
(0.000567189 -4.82396e-07 -0.000623878)
(0.00056726 -4.86141e-07 -0.000623954)
(0.000567332 -4.89945e-07 -0.000624032)
(0.000567405 -4.93808e-07 -0.000624111)
(0.00056748 -4.97733e-07 -0.000624191)
(0.000567555 -5.0172e-07 -0.000624272)
(0.000567632 -5.05772e-07 -0.000624355)
(0.000592608 -5.36268e-07 -9.70242e-12)
(0.000565799 -4.35614e-07 -0.00062237)
(0.000565854 -4.38662e-07 -0.000622429)
(0.000565909 -4.41753e-07 -0.000622488)
(0.000565965 -4.44888e-07 -0.000622548)
(0.000566021 -4.48067e-07 -0.000622609)
(0.000566079 -4.51293e-07 -0.000622671)
(0.000566137 -4.54565e-07 -0.000622734)
(0.000566196 -4.57885e-07 -0.000622797)
(0.000566256 -4.61253e-07 -0.000622862)
(0.000566317 -4.64672e-07 -0.000622928)
(0.000566379 -4.68142e-07 -0.000622994)
(0.000566441 -4.71664e-07 -0.000623062)
(0.000566505 -4.75239e-07 -0.00062313)
(0.00056657 -4.78869e-07 -0.0006232)
(0.000566635 -4.82555e-07 -0.00062327)
(0.000566702 -4.86298e-07 -0.000623342)
(0.00056677 -4.90099e-07 -0.000623415)
(0.000566838 -4.9396e-07 -0.000623489)
(0.000566908 -4.97883e-07 -0.000623564)
(0.000566979 -5.01869e-07 -0.000623641)
(0.000567051 -5.05918e-07 -0.000623718)
(0.000591995 -5.36334e-07 -9.44923e-12)
(0.0005653 -4.35791e-07 -0.000621823)
(0.000565351 -4.38838e-07 -0.000621877)
(0.000565402 -4.41928e-07 -0.000621933)
(0.000565454 -4.45061e-07 -0.000621989)
(0.000565507 -4.4824e-07 -0.000622046)
(0.000565561 -4.51464e-07 -0.000622104)
(0.000565616 -4.54734e-07 -0.000622162)
(0.000565671 -4.58053e-07 -0.000622222)
(0.000565727 -4.6142e-07 -0.000622282)
(0.000565784 -4.64838e-07 -0.000622343)
(0.000565842 -4.68306e-07 -0.000622406)
(0.000565901 -4.71826e-07 -0.000622469)
(0.00056596 -4.754e-07 -0.000622533)
(0.000566021 -4.79028e-07 -0.000622598)
(0.000566082 -4.82712e-07 -0.000622664)
(0.000566144 -4.86453e-07 -0.000622731)
(0.000566208 -4.90253e-07 -0.000622799)
(0.000566272 -4.94112e-07 -0.000622868)
(0.000566337 -4.98033e-07 -0.000622938)
(0.000566404 -5.02016e-07 -0.00062301)
(0.000566471 -5.06063e-07 -0.000623082)
(0.000591382 -5.36399e-07 -9.19697e-12)
(0.000564801 -4.35967e-07 -0.000621275)
(0.000564848 -4.39013e-07 -0.000621326)
(0.000564896 -4.42101e-07 -0.000621378)
(0.000564945 -4.45234e-07 -0.00062143)
(0.000564994 -4.48411e-07 -0.000621483)
(0.000565044 -4.51634e-07 -0.000621537)
(0.000565095 -4.54903e-07 -0.000621591)
(0.000565146 -4.5822e-07 -0.000621647)
(0.000565199 -4.61586e-07 -0.000621703)
(0.000565252 -4.65002e-07 -0.00062176)
(0.000565305 -4.68469e-07 -0.000621818)
(0.00056536 -4.71988e-07 -0.000621876)
(0.000565416 -4.7556e-07 -0.000621936)
(0.000565472 -4.79186e-07 -0.000621996)
(0.000565529 -4.82868e-07 -0.000622058)
(0.000565587 -4.86607e-07 -0.00062212)
(0.000565646 -4.90405e-07 -0.000622184)
(0.000565706 -4.94262e-07 -0.000622248)
(0.000565767 -4.98181e-07 -0.000622313)
(0.000565829 -5.02162e-07 -0.00062238)
(0.000565891 -5.06207e-07 -0.000622447)
(0.000590769 -5.36463e-07 -8.94534e-12)
(0.000564302 -4.36142e-07 -0.000620729)
(0.000564346 -4.39187e-07 -0.000620776)
(0.00056439 -4.42274e-07 -0.000620823)
(0.000564435 -4.45405e-07 -0.000620872)
(0.000564481 -4.48581e-07 -0.000620921)
(0.000564527 -4.51803e-07 -0.00062097)
(0.000564574 -4.55071e-07 -0.000621021)
(0.000564622 -4.58387e-07 -0.000621072)
(0.00056467 -4.61751e-07 -0.000621124)
(0.00056472 -4.65166e-07 -0.000621177)
(0.000564769 -4.68631e-07 -0.00062123)
(0.00056482 -4.72148e-07 -0.000621284)
(0.000564871 -4.75718e-07 -0.00062134)
(0.000564924 -4.79343e-07 -0.000621396)
(0.000564977 -4.83023e-07 -0.000621452)
(0.00056503 -4.86761e-07 -0.00062151)
(0.000565085 -4.90556e-07 -0.000621569)
(0.00056514 -4.94412e-07 -0.000621628)
(0.000565197 -4.98328e-07 -0.000621688)
(0.000565254 -5.02307e-07 -0.00062175)
(0.000565312 -5.0635e-07 -0.000621812)
(0.000590157 -5.36526e-07 -8.69434e-12)
(0.000563803 -4.36316e-07 -0.000620182)
(0.000563844 -4.3936e-07 -0.000620226)
(0.000563885 -4.42446e-07 -0.000620269)
(0.000563926 -4.45576e-07 -0.000620314)
(0.000563968 -4.48751e-07 -0.000620359)
(0.000564011 -4.51971e-07 -0.000620405)
(0.000564054 -4.55238e-07 -0.000620451)
(0.000564098 -4.58552e-07 -0.000620498)
(0.000564143 -4.61915e-07 -0.000620546)
(0.000564188 -4.65328e-07 -0.000620594)
(0.000564234 -4.68792e-07 -0.000620643)
(0.00056428 -4.72307e-07 -0.000620693)
(0.000564328 -4.75876e-07 -0.000620744)
(0.000564376 -4.79499e-07 -0.000620795)
(0.000564425 -4.83177e-07 -0.000620847)
(0.000564474 -4.86913e-07 -0.0006209)
(0.000564524 -4.90706e-07 -0.000620954)
(0.000564575 -4.9456e-07 -0.000621009)
(0.000564627 -4.98474e-07 -0.000621064)
(0.00056468 -5.0245e-07 -0.000621121)
(0.000564734 -5.06491e-07 -0.000621178)
(0.000589546 -5.36587e-07 -8.44397e-12)
(0.000563305 -4.36489e-07 -0.000619636)
(0.000563342 -4.39531e-07 -0.000619676)
(0.00056338 -4.42617e-07 -0.000619716)
(0.000563418 -4.45746e-07 -0.000619756)
(0.000563456 -4.48919e-07 -0.000619797)
(0.000563495 -4.52138e-07 -0.000619839)
(0.000563535 -4.55404e-07 -0.000619881)
(0.000563575 -4.58717e-07 -0.000619924)
(0.000563615 -4.62078e-07 -0.000619968)
(0.000563657 -4.6549e-07 -0.000620012)
(0.000563699 -4.68952e-07 -0.000620057)
(0.000563741 -4.72465e-07 -0.000620102)
(0.000563785 -4.76032e-07 -0.000620148)
(0.000563828 -4.79653e-07 -0.000620195)
(0.000563873 -4.8333e-07 -0.000620243)
(0.000563918 -4.87064e-07 -0.000620291)
(0.000563964 -4.90855e-07 -0.00062034)
(0.000564011 -4.94706e-07 -0.00062039)
(0.000564058 -4.98618e-07 -0.000620441)
(0.000564106 -5.02593e-07 -0.000620492)
(0.000564155 -5.06631e-07 -0.000620544)
(0.000588935 -5.36647e-07 -8.19424e-12)
(0.000562808 -4.36661e-07 -0.000619091)
(0.000562841 -4.39702e-07 -0.000619127)
(0.000562875 -4.42787e-07 -0.000619163)
(0.000562909 -4.45914e-07 -0.000619199)
(0.000562944 -4.49086e-07 -0.000619236)
(0.000562979 -4.52304e-07 -0.000619274)
(0.000563015 -4.55568e-07 -0.000619312)
(0.000563052 -4.5888e-07 -0.000619351)
(0.000563089 -4.6224e-07 -0.00061939)
(0.000563126 -4.6565e-07 -0.00061943)
(0.000563164 -4.6911e-07 -0.000619471)
(0.000563203 -4.72622e-07 -0.000619512)
(0.000563242 -4.76187e-07 -0.000619553)
(0.000563282 -4.79807e-07 -0.000619596)
(0.000563322 -4.83481e-07 -0.000619639)
(0.000563363 -4.87213e-07 -0.000619682)
(0.000563405 -4.91003e-07 -0.000619727)
(0.000563447 -4.94852e-07 -0.000619772)
(0.00056349 -4.98761e-07 -0.000619818)
(0.000563533 -5.02733e-07 -0.000619864)
(0.000563578 -5.06769e-07 -0.000619911)
(0.000588324 -5.36705e-07 -7.94513e-12)
(0.00056231 -4.36832e-07 -0.000618546)
(0.00056234 -4.39872e-07 -0.000618578)
(0.000562371 -4.42955e-07 -0.00061861)
(0.000562401 -4.46082e-07 -0.000618643)
(0.000562433 -4.49253e-07 -0.000618676)
(0.000562464 -4.52469e-07 -0.000618709)
(0.000562496 -4.55732e-07 -0.000618744)
(0.000562529 -4.59042e-07 -0.000618778)
(0.000562562 -4.624e-07 -0.000618813)
(0.000562596 -4.65809e-07 -0.000618849)
(0.00056263 -4.69267e-07 -0.000618885)
(0.000562664 -4.72778e-07 -0.000618922)
(0.000562699 -4.76341e-07 -0.000618959)
(0.000562735 -4.79959e-07 -0.000618997)
(0.000562771 -4.83631e-07 -0.000619035)
(0.000562808 -4.87361e-07 -0.000619074)
(0.000562845 -4.91148e-07 -0.000619114)
(0.000562883 -4.94995e-07 -0.000619154)
(0.000562922 -4.98903e-07 -0.000619195)
(0.000562961 -5.02873e-07 -0.000619237)
(0.000563001 -5.06906e-07 -0.000619279)
(0.000587715 -5.36762e-07 -7.69666e-12)
(0.000561813 -4.37001e-07 -0.000618001)
(0.00056184 -4.40041e-07 -0.000618029)
(0.000561867 -4.43122e-07 -0.000618058)
(0.000561894 -4.46248e-07 -0.000618086)
(0.000561922 -4.49417e-07 -0.000618116)
(0.00056195 -4.52632e-07 -0.000618145)
(0.000561978 -4.55894e-07 -0.000618175)
(0.000562007 -4.59202e-07 -0.000618206)
(0.000562036 -4.62559e-07 -0.000618237)
(0.000562066 -4.65966e-07 -0.000618268)
(0.000562096 -4.69423e-07 -0.0006183)
(0.000562127 -4.72932e-07 -0.000618332)
(0.000562158 -4.76493e-07 -0.000618365)
(0.000562189 -4.80109e-07 -0.000618399)
(0.000562221 -4.8378e-07 -0.000618432)
(0.000562254 -4.87507e-07 -0.000618467)
(0.000562287 -4.91293e-07 -0.000618502)
(0.00056232 -4.95138e-07 -0.000618537)
(0.000562354 -4.99043e-07 -0.000618573)
(0.000562389 -5.0301e-07 -0.00061861)
(0.000562424 -5.07041e-07 -0.000618647)
(0.000587105 -5.36817e-07 -7.44881e-12)
(0.000561317 -4.3717e-07 -0.000617457)
(0.00056134 -4.40208e-07 -0.000617481)
(0.000561363 -4.43288e-07 -0.000617506)
(0.000561387 -4.46412e-07 -0.000617531)
(0.000561411 -4.49581e-07 -0.000617556)
(0.000561435 -4.52794e-07 -0.000617582)
(0.00056146 -4.56054e-07 -0.000617608)
(0.000561485 -4.59362e-07 -0.000617634)
(0.00056151 -4.62717e-07 -0.000617661)
(0.000561536 -4.66122e-07 -0.000617688)
(0.000561563 -4.69577e-07 -0.000617715)
(0.000561589 -4.73084e-07 -0.000617743)
(0.000561616 -4.76644e-07 -0.000617772)
(0.000561644 -4.80258e-07 -0.000617801)
(0.000561671 -4.83927e-07 -0.00061783)
(0.0005617 -4.87652e-07 -0.00061786)
(0.000561728 -4.91436e-07 -0.00061789)
(0.000561758 -4.95278e-07 -0.000617921)
(0.000561787 -4.99181e-07 -0.000617952)
(0.000561817 -5.03146e-07 -0.000617983)
(0.000561848 -5.07175e-07 -0.000618015)
(0.000586497 -5.3687e-07 -7.20159e-12)
(0.00056082 -4.37337e-07 -0.000616913)
(0.00056084 -4.40374e-07 -0.000616934)
(0.00056086 -4.43453e-07 -0.000616954)
(0.00056088 -4.46576e-07 -0.000616975)
(0.000560901 -4.49743e-07 -0.000616997)
(0.000560921 -4.52955e-07 -0.000617018)
(0.000560942 -4.56214e-07 -0.00061704)
(0.000560964 -4.59519e-07 -0.000617063)
(0.000560985 -4.62873e-07 -0.000617085)
(0.000561007 -4.66277e-07 -0.000617108)
(0.00056103 -4.6973e-07 -0.000617131)
(0.000561052 -4.73236e-07 -0.000617155)
(0.000561075 -4.76794e-07 -0.000617179)
(0.000561098 -4.80405e-07 -0.000617203)
(0.000561122 -4.84072e-07 -0.000617228)
(0.000561146 -4.87796e-07 -0.000617253)
(0.000561171 -4.91577e-07 -0.000617279)
(0.000561195 -4.95417e-07 -0.000617304)
(0.000561221 -4.99318e-07 -0.000617331)
(0.000561246 -5.0328e-07 -0.000617357)
(0.000561272 -5.07307e-07 -0.000617385)
(0.000585889 -5.36922e-07 -6.95501e-12)
(0.000560325 -4.37526e-07 -0.00061637)
(0.000560341 -4.40563e-07 -0.000616387)
(0.000560357 -4.43641e-07 -0.000616404)
(0.000560374 -4.46763e-07 -0.000616421)
(0.000560391 -4.49929e-07 -0.000616438)
(0.000560408 -4.5314e-07 -0.000616456)
(0.000560425 -4.56397e-07 -0.000616474)
(0.000560443 -4.59702e-07 -0.000616492)
(0.000560461 -4.63055e-07 -0.00061651)
(0.000560479 -4.66457e-07 -0.000616529)
(0.000560497 -4.69909e-07 -0.000616548)
(0.000560516 -4.73413e-07 -0.000616567)
(0.000560535 -4.7697e-07 -0.000616587)
(0.000560554 -4.8058e-07 -0.000616607)
(0.000560574 -4.84245e-07 -0.000616627)
(0.000560594 -4.87967e-07 -0.000616647)
(0.000560614 -4.91747e-07 -0.000616668)
(0.000560634 -4.95585e-07 -0.000616689)
(0.000560655 -4.99484e-07 -0.000616711)
(0.000560676 -5.03445e-07 -0.000616733)
(0.000560698 -5.07469e-07 -0.000616755)
(0.000585281 -5.37003e-07 -6.69146e-12)
(0.000559957 -4.45389e-07 -0.000615956)
(0.000559971 -4.48479e-07 -0.00061597)
(0.000559984 -4.51611e-07 -0.000615984)
(0.000559998 -4.54788e-07 -0.000615998)
(0.000560013 -4.5801e-07 -0.000616012)
(0.000560027 -4.61277e-07 -0.000616027)
(0.000560042 -4.64592e-07 -0.000616042)
(0.000560056 -4.67954e-07 -0.000616057)
(0.000560072 -4.71366e-07 -0.000616072)
(0.000560087 -4.74828e-07 -0.000616088)
(0.000560102 -4.78341e-07 -0.000616103)
(0.000560118 -4.81906e-07 -0.000616119)
(0.000560134 -4.85525e-07 -0.000616136)
(0.00056015 -4.89199e-07 -0.000616152)
(0.000560167 -4.92928e-07 -0.000616169)
(0.000560183 -4.96715e-07 -0.000616186)
(0.0005602 -5.00561e-07 -0.000616203)
(0.000560218 -5.04466e-07 -0.00061622)
(0.000560235 -5.08433e-07 -0.000616238)
(0.000560253 -5.12463e-07 -0.000616256)
(0.000560271 -5.16558e-07 -0.000616275)
(0.00058481 -5.45322e-07 -3.76325e-11)
)
;

boundaryField
{
    inlet
    {
        type            calculated;
        value           uniform (0 0 0);
    }
    outlet2
    {
        type            calculated;
        value           uniform (0 0 0);
    }
    outlet1
    {
        type            calculated;
        value           uniform (0 0 0);
    }
    wall
    {
        type            calculated;
        value           uniform (0 0 0);
    }
    symmetryBottom
    {
        type            symmetry;
    }
    symmetryZ0
    {
        type            symmetry;
    }
    symmetryZ05
    {
        type            symmetry;
    }
}


// ************************************************************************* //
