/*--------------------------------*- C++ -*----------------------------------*\
| =========                 |                                                 |
| \\      /  F ield         | OpenFOAM: The Open Source CFD Toolbox           |
|  \\    /   O peration     | Version:  2412                                  |
|   \\  /    A nd           | Website:  www.openfoam.com                      |
|    \\/     M anipulation  |                                                 |
\*---------------------------------------------------------------------------*/
FoamFile
{
    version     2.0;
    format      ascii;
    arch        "LSB;label=32;scalar=64";
    class       volVectorField;
    location    "1.07831e-06";
    object      rhoU_dof2;
}
// * * * * * * * * * * * * * * * * * * * * * * * * * * * * * * * * * * * * * //

dimensions      [0 0 0 0 0 0 0];

internalField   nonuniform List<vector> 
625
(
(1.03374e-05 -0.000176857 5.63111e-10)
(1.85005e-05 -0.000156599 5.96252e-10)
(-1.00526e-07 3.21813e-06 -0.000595925)
(-7.59202e-06 4.28574e-06 4.80255e-10)
(2.15858e-06 3.25713e-06 4.90385e-10)
(-4.22376e-07 3.22859e-06 -0.000595959)
(-1.61201e-06 3.68263e-06 5.37758e-10)
(7.5785e-06 2.71016e-06 5.57875e-10)
(-4.2177e-07 3.22851e-06 -0.00059594)
(-1.63602e-06 3.68505e-06 5.3763e-10)
(7.55642e-06 2.71238e-06 5.57711e-10)
(-4.21771e-07 3.22851e-06 -0.00059594)
(-1.63596e-06 3.68504e-06 5.37631e-10)
(7.55648e-06 2.71237e-06 5.57711e-10)
(-4.21771e-07 3.22851e-06 -0.00059594)
(-1.63596e-06 3.68504e-06 5.37631e-10)
(7.55648e-06 2.71237e-06 5.57711e-10)
(-4.21771e-07 3.22851e-06 -0.00059594)
(-1.63596e-06 3.68504e-06 5.37631e-10)
(7.55648e-06 2.71237e-06 5.57711e-10)
(-4.21771e-07 3.22851e-06 -0.00059594)
(-1.63596e-06 3.68504e-06 5.37631e-10)
(7.55648e-06 2.71237e-06 5.57711e-10)
(-4.21771e-07 3.22851e-06 -0.00059594)
(-1.63596e-06 3.68504e-06 5.37631e-10)
(7.55648e-06 2.71237e-06 5.57711e-10)
(-4.21771e-07 3.22851e-06 -0.00059594)
(-1.63596e-06 3.68504e-06 5.37631e-10)
(7.55648e-06 2.71237e-06 5.57711e-10)
(-4.21771e-07 3.22851e-06 -0.00059594)
(-1.63596e-06 3.68504e-06 5.37631e-10)
(7.55648e-06 2.71237e-06 5.57711e-10)
(-4.21771e-07 3.22851e-06 -0.00059594)
(-1.63596e-06 3.68504e-06 5.37631e-10)
(7.55648e-06 2.71237e-06 5.57711e-10)
(-4.21771e-07 3.22851e-06 -0.00059594)
(-1.63596e-06 3.68504e-06 5.37631e-10)
(7.55648e-06 2.71237e-06 5.57711e-10)
(-4.21771e-07 3.22851e-06 -0.00059594)
(-1.63596e-06 3.68504e-06 5.37631e-10)
(7.55648e-06 2.71237e-06 5.57711e-10)
(-4.21771e-07 3.22851e-06 -0.00059594)
(-1.63596e-06 3.68504e-06 5.37631e-10)
(7.55648e-06 2.71237e-06 5.57711e-10)
(-4.21771e-07 3.22851e-06 -0.00059594)
(-1.63596e-06 3.68504e-06 5.37631e-10)
(7.55648e-06 2.71237e-06 5.57711e-10)
(-4.21771e-07 3.22851e-06 -0.00059594)
(-1.63596e-06 3.68504e-06 5.37631e-10)
(7.55648e-06 2.71237e-06 5.57711e-10)
(-4.21771e-07 3.22851e-06 -0.00059594)
(-1.63596e-06 3.68504e-06 5.37631e-10)
(7.55648e-06 2.71237e-06 5.57711e-10)
(-4.21771e-07 3.22851e-06 -0.00059594)
(-1.63596e-06 3.68504e-06 5.37631e-10)
(7.55648e-06 2.71237e-06 5.57711e-10)
(-4.21771e-07 3.22851e-06 -0.00059594)
(-1.63596e-06 3.68504e-06 5.37631e-10)
(7.55648e-06 2.71237e-06 5.57711e-10)
(-4.21771e-07 3.22851e-06 -0.00059594)
(-1.63596e-06 3.68504e-06 5.37631e-10)
(7.55648e-06 2.71237e-06 5.57711e-10)
(-4.21771e-07 3.22851e-06 -0.00059594)
(-1.63596e-06 3.68504e-06 5.37631e-10)
(7.55648e-06 2.71237e-06 5.57711e-10)
(-4.21771e-07 3.22851e-06 -0.00059594)
(-1.63595e-06 3.68504e-06 5.3763e-10)
(7.55641e-06 2.71238e-06 5.5771e-10)
(-4.2084e-07 3.22843e-06 -0.00059594)
(-1.63827e-06 3.68526e-06 5.37454e-10)
(7.58952e-06 2.70991e-06 5.57604e-10)
(3.9791e-07 3.17749e-06 -0.00059594)
(-5.7634e-07 3.62234e-06 -3.57435e-12)
(-6.07981e-07 3.20324e-06 -4.5419e-12)
(-7.70233e-07 3.21954e-06 1.25924e-08)
(0.00506609 -0.000190399 3.66498e-09)
(0.00510073 -0.000191949 3.72604e-09)
(0.00513584 -0.000193524 3.7886e-09)
(0.00517143 -0.000195125 3.85271e-09)
(0.00520752 -0.000196751 3.91842e-09)
(0.00524412 -0.000198405 3.9858e-09)
(0.00528124 -0.000200087 4.05489e-09)
(0.00531888 -0.000201796 4.12575e-09)
(0.00535707 -0.000203535 4.19845e-09)
(0.0053958 -0.000205304 4.27304e-09)
(0.0054351 -0.000207103 4.3496e-09)
(0.00547498 -0.000208933 4.42819e-09)
(0.00551544 -0.000210795 4.50889e-09)
(0.00555651 -0.000212691 4.59177e-09)
(0.00559819 -0.000214621 4.67691e-09)
(0.0056405 -0.000216585 4.7644e-09)
(0.00568345 -0.000218585 4.85432e-09)
(0.00572707 -0.000220622 4.94676e-09)
(0.00577135 -0.000222696 5.04182e-09)
(0.00581633 -0.00022481 5.1396e-09)
(0.00586201 -0.000226963 5.24019e-09)
(2.75812e-08 3.67069e-06 -0.000676532)
(-0.000148952 -9.21114e-06 2.31311e-09)
(-0.000150532 -9.39859e-06 2.33008e-09)
(-0.000152143 -9.59038e-06 2.34729e-09)
(-0.000153784 -9.78665e-06 2.36475e-09)
(-0.000155457 -9.98755e-06 2.38247e-09)
(-0.000157162 -1.01932e-05 2.40046e-09)
(-0.0001589 -1.04038e-05 2.41872e-09)
(-0.000160673 -1.06194e-05 2.43725e-09)
(-0.00016248 -1.08403e-05 2.45607e-09)
(-0.000164324 -1.10666e-05 2.47517e-09)
(-0.000166205 -1.12985e-05 2.49457e-09)
(-0.000168125 -1.15362e-05 2.51427e-09)
(-0.000170083 -1.17799e-05 2.53429e-09)
(-0.000172082 -1.20297e-05 2.55461e-09)
(-0.000174123 -1.2286e-05 2.57527e-09)
(-0.000176207 -1.25488e-05 2.59625e-09)
(-0.000178335 -1.28185e-05 2.61757e-09)
(-0.000180508 -1.30952e-05 2.63925e-09)
(-0.000182728 -1.33793e-05 2.66127e-09)
(-0.000184996 -1.3671e-05 2.68367e-09)
(-0.000187314 -1.39706e-05 2.70643e-09)
(-4.97639e-07 3.39201e-06 -0.000626559)
(-7.68709e-05 2.85865e-06 2.11108e-09)
(-7.74327e-05 2.85957e-06 2.12584e-09)
(-7.80028e-05 2.86059e-06 2.1408e-09)
(-7.85814e-05 2.8617e-06 2.15598e-09)
(-7.91685e-05 2.8629e-06 2.17138e-09)
(-7.97645e-05 2.86421e-06 2.18699e-09)
(-8.03695e-05 2.86563e-06 2.20283e-09)
(-8.09837e-05 2.86717e-06 2.2189e-09)
(-8.16074e-05 2.86881e-06 2.23521e-09)
(-8.22407e-05 2.87059e-06 2.25176e-09)
(-8.28839e-05 2.87249e-06 2.26855e-09)
(-8.35372e-05 2.87452e-06 2.2856e-09)
(-8.42008e-05 2.8767e-06 2.3029e-09)
(-8.48751e-05 2.87902e-06 2.32047e-09)
(-8.55602e-05 2.8815e-06 2.33831e-09)
(-8.62565e-05 2.88414e-06 2.35642e-09)
(-8.69641e-05 2.88695e-06 2.37482e-09)
(-8.76834e-05 2.88993e-06 2.3935e-09)
(-8.84147e-05 2.8931e-06 2.41248e-09)
(-8.91582e-05 2.89646e-06 2.43176e-09)
(-8.99143e-05 2.90002e-06 2.45135e-09)
(-5.04952e-07 3.38955e-06 -0.000626094)
(-7.75248e-05 2.69974e-06 2.03477e-09)
(-7.80888e-05 2.69721e-06 2.04905e-09)
(-7.86611e-05 2.69467e-06 2.06353e-09)
(-7.92418e-05 2.69213e-06 2.07821e-09)
(-7.98311e-05 2.68957e-06 2.0931e-09)
(-8.04291e-05 2.687e-06 2.10821e-09)
(-8.10362e-05 2.68442e-06 2.12353e-09)
(-8.16525e-05 2.68183e-06 2.13909e-09)
(-8.22782e-05 2.67924e-06 2.15487e-09)
(-8.29135e-05 2.67663e-06 2.17088e-09)
(-8.35587e-05 2.67402e-06 2.18714e-09)
(-8.4214e-05 2.6714e-06 2.20364e-09)
(-8.48795e-05 2.66878e-06 2.22039e-09)
(-8.55557e-05 2.66614e-06 2.2374e-09)
(-8.62427e-05 2.6635e-06 2.25467e-09)
(-8.69407e-05 2.66086e-06 2.27221e-09)
(-8.765e-05 2.65821e-06 2.29003e-09)
(-8.8371e-05 2.65556e-06 2.30812e-09)
(-8.91039e-05 2.6529e-06 2.32651e-09)
(-8.9849e-05 2.65024e-06 2.34519e-09)
(-9.06066e-05 2.64758e-06 2.36417e-09)
(-5.04439e-07 3.38617e-06 -0.000625463)
(-7.81801e-05 2.69108e-06 1.95515e-09)
(-7.87468e-05 2.68844e-06 1.96886e-09)
(-7.93216e-05 2.68578e-06 1.98277e-09)
(-7.9905e-05 2.68311e-06 1.99688e-09)
(-8.04969e-05 2.68042e-06 2.01119e-09)
(-8.10978e-05 2.67773e-06 2.02571e-09)
(-8.17075e-05 2.67502e-06 2.04043e-09)
(-8.23265e-05 2.6723e-06 2.05538e-09)
(-8.29548e-05 2.66957e-06 2.07054e-09)
(-8.35929e-05 2.66683e-06 2.08593e-09)
(-8.42408e-05 2.66407e-06 2.10155e-09)
(-8.48987e-05 2.66131e-06 2.1174e-09)
(-8.55671e-05 2.65854e-06 2.1335e-09)
(-8.62459e-05 2.65576e-06 2.14984e-09)
(-8.69357e-05 2.65297e-06 2.16643e-09)
(-8.76364e-05 2.65017e-06 2.18328e-09)
(-8.83486e-05 2.64736e-06 2.2004e-09)
(-8.90723e-05 2.64455e-06 2.21779e-09)
(-8.9808e-05 2.64173e-06 2.23545e-09)
(-9.05559e-05 2.63891e-06 2.2534e-09)
(-9.13163e-05 2.63608e-06 2.27164e-09)
(-5.04014e-07 3.38281e-06 -0.000624836)
(-7.88455e-05 2.68138e-06 1.87558e-09)
(-7.94148e-05 2.67859e-06 1.88874e-09)
(-7.99925e-05 2.67577e-06 1.90208e-09)
(-8.05785e-05 2.67295e-06 1.91562e-09)
(-8.11732e-05 2.6701e-06 1.92934e-09)
(-8.17767e-05 2.66724e-06 1.94327e-09)
(-8.23892e-05 2.66437e-06 1.9574e-09)
(-8.30109e-05 2.66148e-06 1.97173e-09)
(-8.36422e-05 2.65857e-06 1.98628e-09)
(-8.42829e-05 2.65565e-06 2.00104e-09)
(-8.49336e-05 2.65272e-06 2.01603e-09)
(-8.55944e-05 2.64977e-06 2.03124e-09)
(-8.62655e-05 2.64681e-06 2.04668e-09)
(-8.69473e-05 2.64383e-06 2.06236e-09)
(-8.76397e-05 2.64084e-06 2.07828e-09)
(-8.83433e-05 2.63784e-06 2.09445e-09)
(-8.90583e-05 2.63483e-06 2.11087e-09)
(-8.97849e-05 2.6318e-06 2.12755e-09)
(-9.05234e-05 2.62876e-06 2.1445e-09)
(-9.12742e-05 2.62572e-06 2.16172e-09)
(-9.20373e-05 2.62266e-06 2.17921e-09)
(-5.03589e-07 3.37945e-06 -0.00062421)
(-7.95248e-05 2.67166e-06 1.79602e-09)
(-8.0097e-05 2.66872e-06 1.80862e-09)
(-8.06775e-05 2.66575e-06 1.8214e-09)
(-8.12665e-05 2.66277e-06 1.83436e-09)
(-8.18641e-05 2.65976e-06 1.84751e-09)
(-8.24705e-05 2.65674e-06 1.86084e-09)
(-8.30861e-05 2.6537e-06 1.87437e-09)
(-8.37108e-05 2.65064e-06 1.8881e-09)
(-8.43449e-05 2.64756e-06 1.90203e-09)
(-8.49888e-05 2.64446e-06 1.91617e-09)
(-8.56425e-05 2.64134e-06 1.93052e-09)
(-8.63063e-05 2.63821e-06 1.94509e-09)
(-8.69805e-05 2.63505e-06 1.95987e-09)
(-8.76652e-05 2.63188e-06 1.97489e-09)
(-8.83608e-05 2.62869e-06 1.99013e-09)
(-8.90675e-05 2.62549e-06 2.00562e-09)
(-8.97855e-05 2.62226e-06 2.02134e-09)
(-9.05152e-05 2.61902e-06 2.03732e-09)
(-9.12568e-05 2.61577e-06 2.05355e-09)
(-9.20106e-05 2.61249e-06 2.07004e-09)
(-9.2777e-05 2.60921e-06 2.08679e-09)
(-5.03164e-07 3.3761e-06 -0.000623584)
(-8.0218e-05 2.66192e-06 1.71647e-09)
(-8.07933e-05 2.65882e-06 1.72851e-09)
(-8.13769e-05 2.6557e-06 1.74072e-09)
(-8.1969e-05 2.65256e-06 1.75311e-09)
(-8.25697e-05 2.6494e-06 1.76568e-09)
(-8.31794e-05 2.64621e-06 1.77842e-09)
(-8.3798e-05 2.643e-06 1.79135e-09)
(-8.4426e-05 2.63977e-06 1.80448e-09)
(-8.50633e-05 2.63652e-06 1.81779e-09)
(-8.57103e-05 2.63324e-06 1.8313e-09)
(-8.63673e-05 2.62994e-06 1.84502e-09)
(-8.70344e-05 2.62661e-06 1.85894e-09)
(-8.77118e-05 2.62327e-06 1.87307e-09)
(-8.83999e-05 2.6199e-06 1.88743e-09)
(-8.90988e-05 2.61651e-06 1.902e-09)
(-8.98088e-05 2.6131e-06 1.9168e-09)
(-9.05303e-05 2.60967e-06 1.93183e-09)
(-9.12632e-05 2.60621e-06 1.9471e-09)
(-9.20083e-05 2.60274e-06 1.96261e-09)
(-9.27655e-05 2.59924e-06 1.97837e-09)
(-9.35352e-05 2.59572e-06 1.99439e-09)
(-5.0274e-07 3.37274e-06 -0.000622959)
(-8.09252e-05 2.65215e-06 1.63692e-09)
(-8.15038e-05 2.64891e-06 1.64841e-09)
(-8.20907e-05 2.64563e-06 1.66006e-09)
(-8.26861e-05 2.64233e-06 1.67187e-09)
(-8.32902e-05 2.63901e-06 1.68386e-09)
(-8.39031e-05 2.63566e-06 1.69601e-09)
(-8.45253e-05 2.63228e-06 1.70835e-09)
(-8.51565e-05 2.62887e-06 1.72086e-09)
(-8.57973e-05 2.62544e-06 1.73356e-09)
(-8.64479e-05 2.62199e-06 1.74645e-09)
(-8.71083e-05 2.6185e-06 1.75953e-09)
(-8.77788e-05 2.61499e-06 1.77281e-09)
(-8.84599e-05 2.61145e-06 1.78629e-09)
(-8.91514e-05 2.60789e-06 1.79997e-09)
(-8.98539e-05 2.6043e-06 1.81387e-09)
(-9.05676e-05 2.60068e-06 1.82799e-09)
(-9.12925e-05 2.59704e-06 1.84232e-09)
(-9.20293e-05 2.59337e-06 1.85689e-09)
(-9.27778e-05 2.58967e-06 1.87168e-09)
(-9.35388e-05 2.58594e-06 1.88671e-09)
(-9.43123e-05 2.58219e-06 1.90199e-09)
(-5.02316e-07 3.36939e-06 -0.000622334)
(-8.16349e-05 2.64313e-06 1.55657e-09)
(-8.22169e-05 2.63973e-06 1.56749e-09)
(-8.28073e-05 2.6363e-06 1.57856e-09)
(-8.34062e-05 2.63285e-06 1.58979e-09)
(-8.40139e-05 2.62936e-06 1.60118e-09)
(-8.46305e-05 2.62585e-06 1.61274e-09)
(-8.52561e-05 2.6223e-06 1.62446e-09)
(-8.5891e-05 2.61872e-06 1.63636e-09)
(-8.65355e-05 2.61512e-06 1.64843e-09)
(-8.71897e-05 2.61148e-06 1.66095e-09)
(-8.78538e-05 2.60781e-06 1.67339e-09)
(-8.85282e-05 2.60411e-06 1.68601e-09)
(-8.92128e-05 2.60039e-06 1.69883e-09)
(-8.99083e-05 2.59663e-06 1.71184e-09)
(-9.06146e-05 2.59283e-06 1.72506e-09)
(-9.1332e-05 2.58901e-06 1.73848e-09)
(-9.2061e-05 2.58516e-06 1.75211e-09)
(-9.28015e-05 2.58127e-06 1.76595e-09)
(-9.35541e-05 2.57735e-06 1.78002e-09)
(-9.4319e-05 2.5734e-06 1.79431e-09)
(-9.50964e-05 2.56942e-06 1.80884e-09)
(-5.01712e-07 3.36606e-06 -0.00062171)
(-8.19135e-05 2.66138e-06 1.51367e-09)
(-8.2496e-05 2.65804e-06 1.52427e-09)
(-8.30867e-05 2.65466e-06 1.53502e-09)
(-8.36861e-05 2.65126e-06 1.54593e-09)
(-8.42942e-05 2.64782e-06 1.55699e-09)
(-8.49111e-05 2.64436e-06 1.56821e-09)
(-8.55371e-05 2.64087e-06 1.5796e-09)
(-8.61724e-05 2.63734e-06 1.59115e-09)
(-8.68172e-05 2.63378e-06 1.60287e-09)
(-8.74717e-05 2.6302e-06 1.61476e-09)
(-8.81362e-05 2.62658e-06 1.62683e-09)
(-8.88108e-05 2.62293e-06 1.63909e-09)
(-8.94958e-05 2.61925e-06 1.65153e-09)
(-9.01914e-05 2.61553e-06 1.66416e-09)
(-9.08979e-05 2.61179e-06 1.67698e-09)
(-9.16156e-05 2.60801e-06 1.69001e-09)
(-9.23446e-05 2.6042e-06 1.70323e-09)
(-9.30854e-05 2.60035e-06 1.71667e-09)
(-9.38381e-05 2.59648e-06 1.73032e-09)
(-9.4603e-05 2.59257e-06 1.74419e-09)
(-9.53806e-05 2.58863e-06 1.75829e-09)
(-5.01454e-07 3.36272e-06 -0.000621076)
(-8.21811e-05 2.68051e-06 1.47177e-09)
(-8.27637e-05 2.67725e-06 1.48208e-09)
(-8.33546e-05 2.67396e-06 1.49253e-09)
(-8.39539e-05 2.67064e-06 1.50313e-09)
(-8.4562e-05 2.66729e-06 1.51388e-09)
(-8.51789e-05 2.66392e-06 1.52478e-09)
(-8.58049e-05 2.66051e-06 1.53584e-09)
(-8.644e-05 2.65707e-06 1.54707e-09)
(-8.70848e-05 2.65361e-06 1.55845e-09)
(-8.77391e-05 2.65011e-06 1.57001e-09)
(-8.84034e-05 2.64658e-06 1.58174e-09)
(-8.90778e-05 2.64302e-06 1.59365e-09)
(-8.97625e-05 2.63943e-06 1.60573e-09)
(-9.04579e-05 2.6358e-06 1.61801e-09)
(-9.1164e-05 2.63215e-06 1.63047e-09)
(-9.18813e-05 2.62846e-06 1.64312e-09)
(-9.261e-05 2.62474e-06 1.65598e-09)
(-9.33503e-05 2.62099e-06 1.66903e-09)
(-9.41025e-05 2.61721e-06 1.6823e-09)
(-9.4867e-05 2.61339e-06 1.69577e-09)
(-9.56438e-05 2.60954e-06 1.70946e-09)
(-5.01708e-07 3.35931e-06 -0.000620443)
(-8.24544e-05 2.70009e-06 1.43e-09)
(-8.30371e-05 2.69692e-06 1.44003e-09)
(-8.36281e-05 2.69372e-06 1.45017e-09)
(-8.42276e-05 2.6905e-06 1.46046e-09)
(-8.48356e-05 2.68724e-06 1.4709e-09)
(-8.54527e-05 2.68396e-06 1.48149e-09)
(-8.60786e-05 2.68064e-06 1.49223e-09)
(-8.67138e-05 2.6773e-06 1.50313e-09)
(-8.73584e-05 2.67393e-06 1.51418e-09)
(-8.80128e-05 2.67053e-06 1.5254e-09)
(-8.86769e-05 2.66709e-06 1.53679e-09)
(-8.93512e-05 2.66363e-06 1.54835e-09)
(-9.00358e-05 2.66014e-06 1.56009e-09)
(-9.07309e-05 2.65661e-06 1.572e-09)
(-9.14369e-05 2.65306e-06 1.5841e-09)
(-9.21539e-05 2.64947e-06 1.59639e-09)
(-9.28823e-05 2.64585e-06 1.60887e-09)
(-9.36222e-05 2.6422e-06 1.62154e-09)
(-9.4374e-05 2.63852e-06 1.63442e-09)
(-9.51379e-05 2.63481e-06 1.6475e-09)
(-9.59144e-05 2.63106e-06 1.66079e-09)
(-5.01887e-07 3.35591e-06 -0.000619811)
(-8.27334e-05 2.72011e-06 1.38834e-09)
(-8.33163e-05 2.71704e-06 1.39809e-09)
(-8.39075e-05 2.71394e-06 1.40793e-09)
(-8.45072e-05 2.71081e-06 1.41792e-09)
(-8.51154e-05 2.70766e-06 1.42805e-09)
(-8.57325e-05 2.70447e-06 1.43832e-09)
(-8.63586e-05 2.70126e-06 1.44874e-09)
(-8.69939e-05 2.69802e-06 1.45931e-09)
(-8.76387e-05 2.69475e-06 1.47004e-09)
(-8.8293e-05 2.69145e-06 1.48093e-09)
(-8.89572e-05 2.68812e-06 1.49198e-09)
(-8.96314e-05 2.68476e-06 1.50319e-09)
(-9.03159e-05 2.68137e-06 1.51458e-09)
(-9.1011e-05 2.67795e-06 1.52613e-09)
(-9.17168e-05 2.6745e-06 1.53787e-09)
(-9.24337e-05 2.67102e-06 1.54979e-09)
(-9.31618e-05 2.66751e-06 1.5619e-09)
(-9.39015e-05 2.66397e-06 1.5742e-09)
(-9.46531e-05 2.6604e-06 1.58669e-09)
(-9.54167e-05 2.6568e-06 1.59938e-09)
(-9.61928e-05 2.65317e-06 1.61227e-09)
(-5.02064e-07 3.35252e-06 -0.000619179)
(-8.3018e-05 2.74058e-06 1.34682e-09)
(-8.36013e-05 2.73761e-06 1.35627e-09)
(-8.41928e-05 2.73461e-06 1.36582e-09)
(-8.47927e-05 2.73159e-06 1.3755e-09)
(-8.54012e-05 2.72854e-06 1.38532e-09)
(-8.60185e-05 2.72546e-06 1.39528e-09)
(-8.66449e-05 2.72235e-06 1.40538e-09)
(-8.72804e-05 2.71922e-06 1.41563e-09)
(-8.79253e-05 2.71605e-06 1.42603e-09)
(-8.85797e-05 2.71286e-06 1.43658e-09)
(-8.9244e-05 2.70965e-06 1.44729e-09)
(-8.99183e-05 2.7064e-06 1.45816e-09)
(-9.06029e-05 2.70312e-06 1.4692e-09)
(-9.1298e-05 2.69982e-06 1.4804e-09)
(-9.20038e-05 2.69648e-06 1.49178e-09)
(-9.27207e-05 2.69312e-06 1.50334e-09)
(-9.34487e-05 2.68972e-06 1.51508e-09)
(-9.41883e-05 2.6863e-06 1.527e-09)
(-9.49397e-05 2.68285e-06 1.5391e-09)
(-9.57032e-05 2.67936e-06 1.5514e-09)
(-9.6479e-05 2.67585e-06 1.5639e-09)
(-5.02242e-07 3.34913e-06 -0.000618548)
(-8.33083e-05 2.76149e-06 1.30542e-09)
(-8.38921e-05 2.75862e-06 1.31456e-09)
(-8.44839e-05 2.75573e-06 1.32383e-09)
(-8.50842e-05 2.75282e-06 1.3332e-09)
(-8.5693e-05 2.74988e-06 1.34272e-09)
(-8.63108e-05 2.74691e-06 1.35237e-09)
(-8.69373e-05 2.74392e-06 1.36215e-09)
(-8.75731e-05 2.7409e-06 1.37208e-09)
(-8.82182e-05 2.73785e-06 1.38215e-09)
(-8.8873e-05 2.73478e-06 1.39237e-09)
(-8.95374e-05 2.73167e-06 1.40274e-09)
(-9.02119e-05 2.72855e-06 1.41327e-09)
(-9.08968e-05 2.72539e-06 1.42396e-09)
(-9.15919e-05 2.7222e-06 1.43481e-09)
(-9.22979e-05 2.71899e-06 1.44583e-09)
(-9.30147e-05 2.71575e-06 1.45702e-09)
(-9.37429e-05 2.71248e-06 1.4684e-09)
(-9.44824e-05 2.70918e-06 1.47994e-09)
(-9.52338e-05 2.70585e-06 1.49167e-09)
(-9.59972e-05 2.7025e-06 1.50358e-09)
(-9.6773e-05 2.69911e-06 1.51568e-09)
(-5.02418e-07 3.34574e-06 -0.000617917)
(-8.36044e-05 2.78283e-06 1.26414e-09)
(-8.41885e-05 2.78008e-06 1.27297e-09)
(-8.47809e-05 2.77731e-06 1.28196e-09)
(-8.53815e-05 2.77451e-06 1.29103e-09)
(-8.59909e-05 2.77168e-06 1.30024e-09)
(-8.66089e-05 2.76883e-06 1.30958e-09)
(-8.7236e-05 2.76596e-06 1.31904e-09)
(-8.78721e-05 2.76306e-06 1.32865e-09)
(-8.85177e-05 2.76013e-06 1.3384e-09)
(-8.91726e-05 2.75718e-06 1.34829e-09)
(-8.98375e-05 2.7542e-06 1.35833e-09)
(-9.05123e-05 2.7512e-06 1.36851e-09)
(-9.11973e-05 2.74817e-06 1.37886e-09)
(-9.18928e-05 2.74511e-06 1.38936e-09)
(-9.25989e-05 2.74203e-06 1.40002e-09)
(-9.3316e-05 2.73892e-06 1.41085e-09)
(-9.40442e-05 2.73578e-06 1.42185e-09)
(-9.4784e-05 2.73261e-06 1.43303e-09)
(-9.55354e-05 2.72942e-06 1.44437e-09)
(-9.6299e-05 2.7262e-06 1.4559e-09)
(-9.70746e-05 2.72295e-06 1.46761e-09)
(-5.02595e-07 3.34235e-06 -0.000617287)
(-8.3906e-05 2.80461e-06 1.22299e-09)
(-8.44907e-05 2.80198e-06 1.23152e-09)
(-8.50835e-05 2.79933e-06 1.2402e-09)
(-8.56849e-05 2.79665e-06 1.24898e-09)
(-8.62947e-05 2.79395e-06 1.25788e-09)
(-8.69132e-05 2.79122e-06 1.26691e-09)
(-8.75408e-05 2.78847e-06 1.27607e-09)
(-8.81774e-05 2.7857e-06 1.28535e-09)
(-8.88233e-05 2.7829e-06 1.29478e-09)
(-8.94789e-05 2.78008e-06 1.30434e-09)
(-9.01441e-05 2.77723e-06 1.31404e-09)
(-9.08193e-05 2.77436e-06 1.32389e-09)
(-9.15047e-05 2.77146e-06 1.33389e-09)
(-9.22005e-05 2.76854e-06 1.34404e-09)
(-9.2907e-05 2.76559e-06 1.35435e-09)
(-9.36244e-05 2.76262e-06 1.36481e-09)
(-9.43529e-05 2.75962e-06 1.37545e-09)
(-9.50929e-05 2.75659e-06 1.38626e-09)
(-9.58446e-05 2.75354e-06 1.39723e-09)
(-9.66082e-05 2.75047e-06 1.40837e-09)
(-9.73841e-05 2.74736e-06 1.41969e-09)
(-5.0277e-07 3.33897e-06 -0.000616657)
(-8.42132e-05 2.82682e-06 1.18195e-09)
(-8.47985e-05 2.82432e-06 1.19019e-09)
(-8.53921e-05 2.82179e-06 1.19855e-09)
(-8.5994e-05 2.81924e-06 1.20705e-09)
(-8.66044e-05 2.81666e-06 1.21565e-09)
(-8.72237e-05 2.81407e-06 1.22437e-09)
(-8.78517e-05 2.81145e-06 1.23321e-09)
(-8.84889e-05 2.80881e-06 1.24218e-09)
(-8.91354e-05 2.80615e-06 1.25128e-09)
(-8.97914e-05 2.80346e-06 1.26052e-09)
(-9.04572e-05 2.80075e-06 1.26989e-09)
(-9.11329e-05 2.79802e-06 1.2794e-09)
(-9.18188e-05 2.79526e-06 1.28906e-09)
(-9.25151e-05 2.79248e-06 1.29886e-09)
(-9.3222e-05 2.78968e-06 1.30882e-09)
(-9.39398e-05 2.78685e-06 1.31892e-09)
(-9.46688e-05 2.784e-06 1.32919e-09)
(-9.5409e-05 2.78112e-06 1.33963e-09)
(-9.61611e-05 2.77822e-06 1.35022e-09)
(-9.69251e-05 2.7753e-06 1.36098e-09)
(-9.77012e-05 2.77235e-06 1.37192e-09)
(-5.02945e-07 3.33559e-06 -0.000616028)
(-8.4526e-05 2.84946e-06 1.14103e-09)
(-8.51121e-05 2.84709e-06 1.14898e-09)
(-8.57063e-05 2.84469e-06 1.15704e-09)
(-8.63089e-05 2.84227e-06 1.16524e-09)
(-8.69202e-05 2.83984e-06 1.17354e-09)
(-8.754e-05 2.83738e-06 1.18196e-09)
(-8.81688e-05 2.8349e-06 1.19049e-09)
(-8.88066e-05 2.8324e-06 1.19914e-09)
(-8.94538e-05 2.82987e-06 1.20792e-09)
(-9.01105e-05 2.82733e-06 1.21683e-09)
(-9.07768e-05 2.82477e-06 1.22587e-09)
(-9.14531e-05 2.82218e-06 1.23505e-09)
(-9.21397e-05 2.81957e-06 1.24436e-09)
(-9.28364e-05 2.81694e-06 1.25382e-09)
(-9.35439e-05 2.81429e-06 1.26342e-09)
(-9.42623e-05 2.81161e-06 1.27317e-09)
(-9.49917e-05 2.80891e-06 1.28308e-09)
(-9.57326e-05 2.80619e-06 1.29315e-09)
(-9.6485e-05 2.80345e-06 1.30337e-09)
(-9.72494e-05 2.80069e-06 1.31375e-09)
(-9.80261e-05 2.7979e-06 1.32429e-09)
(-5.03119e-07 3.33221e-06 -0.0006154)
(-8.48444e-05 2.87253e-06 1.10024e-09)
(-8.54312e-05 2.87029e-06 1.10789e-09)
(-8.60264e-05 2.86803e-06 1.11566e-09)
(-8.66298e-05 2.86575e-06 1.12355e-09)
(-8.72417e-05 2.86346e-06 1.13156e-09)
(-8.78624e-05 2.86114e-06 1.13968e-09)
(-8.84919e-05 2.85881e-06 1.14789e-09)
(-8.91306e-05 2.85645e-06 1.15623e-09)
(-8.97785e-05 2.85408e-06 1.16469e-09)
(-9.04358e-05 2.85168e-06 1.17328e-09)
(-9.1103e-05 2.84927e-06 1.18199e-09)
(-9.178e-05 2.84683e-06 1.19083e-09)
(-9.24671e-05 2.84438e-06 1.1998e-09)
(-9.31647e-05 2.8419e-06 1.20892e-09)
(-9.38728e-05 2.83941e-06 1.21817e-09)
(-9.45918e-05 2.83689e-06 1.22756e-09)
(-9.53219e-05 2.83436e-06 1.2371e-09)
(-9.60633e-05 2.8318e-06 1.24681e-09)
(-9.68164e-05 2.82923e-06 1.25666e-09)
(-9.75814e-05 2.82663e-06 1.26666e-09)
(-9.83585e-05 2.82402e-06 1.27682e-09)
(-5.03292e-07 3.32884e-06 -0.000614772)
(-8.51683e-05 2.89602e-06 1.05956e-09)
(-8.57561e-05 2.89393e-06 1.06693e-09)
(-8.6352e-05 2.89181e-06 1.0744e-09)
(-8.69564e-05 2.88968e-06 1.08199e-09)
(-8.75692e-05 2.88753e-06 1.0897e-09)
(-8.81907e-05 2.88536e-06 1.09751e-09)
(-8.88211e-05 2.88317e-06 1.10542e-09)
(-8.94606e-05 2.88097e-06 1.11345e-09)
(-9.01094e-05 2.87875e-06 1.12159e-09)
(-9.07676e-05 2.87651e-06 1.12985e-09)
(-9.14356e-05 2.87425e-06 1.13823e-09)
(-9.21134e-05 2.87198e-06 1.14674e-09)
(-9.28014e-05 2.86969e-06 1.15538e-09)
(-9.34997e-05 2.86738e-06 1.16415e-09)
(-9.42086e-05 2.86505e-06 1.17305e-09)
(-9.49283e-05 2.8627e-06 1.18209e-09)
(-9.56591e-05 2.86033e-06 1.19127e-09)
(-9.64013e-05 2.85795e-06 1.20061e-09)
(-9.71551e-05 2.85555e-06 1.21009e-09)
(-9.79207e-05 2.85313e-06 1.21972e-09)
(-9.86986e-05 2.85069e-06 1.22949e-09)
(-5.03464e-07 3.32546e-06 -0.000614145)
(-8.54978e-05 2.91994e-06 1.019e-09)
(-8.60866e-05 2.91799e-06 1.02608e-09)
(-8.66836e-05 2.91602e-06 1.03326e-09)
(-8.72888e-05 2.91404e-06 1.04055e-09)
(-8.79027e-05 2.91204e-06 1.04796e-09)
(-8.85251e-05 2.91003e-06 1.05548e-09)
(-8.91565e-05 2.908e-06 1.06308e-09)
(-8.97969e-05 2.90596e-06 1.07079e-09)
(-9.04467e-05 2.9039e-06 1.07862e-09)
(-9.11058e-05 2.90182e-06 1.08655e-09)
(-9.17747e-05 2.89973e-06 1.09461e-09)
(-9.24535e-05 2.89762e-06 1.10279e-09)
(-9.31423e-05 2.8955e-06 1.11109e-09)
(-9.38416e-05 2.89336e-06 1.11952e-09)
(-9.45513e-05 2.8912e-06 1.12807e-09)
(-9.5272e-05 2.88903e-06 1.13676e-09)
(-9.60036e-05 2.88685e-06 1.14558e-09)
(-9.67467e-05 2.88464e-06 1.15456e-09)
(-9.75012e-05 2.88242e-06 1.16367e-09)
(-9.82678e-05 2.88019e-06 1.17292e-09)
(-9.90463e-05 2.87794e-06 1.18231e-09)
(-5.03635e-07 3.3221e-06 -0.000613518)
(-8.58016e-05 2.94196e-06 9.78413e-10)
(-8.63911e-05 2.94013e-06 9.8521e-10)
(-8.69886e-05 2.93828e-06 9.92101e-10)
(-8.75945e-05 2.93642e-06 9.99089e-10)
(-8.82089e-05 2.93455e-06 1.00618e-09)
(-8.8832e-05 2.93266e-06 1.01337e-09)
(-8.94639e-05 2.93076e-06 1.02066e-09)
(-9.01049e-05 2.92885e-06 1.02806e-09)
(-9.07552e-05 2.92692e-06 1.03556e-09)
(-9.1415e-05 2.92497e-06 1.04319e-09)
(-9.20843e-05 2.92301e-06 1.05093e-09)
(-9.27635e-05 2.92104e-06 1.05878e-09)
(-9.34529e-05 2.91905e-06 1.06676e-09)
(-9.41525e-05 2.91705e-06 1.07484e-09)
(-9.48628e-05 2.91504e-06 1.08305e-09)
(-9.55838e-05 2.91301e-06 1.09138e-09)
(-9.63159e-05 2.91096e-06 1.09984e-09)
(-9.70592e-05 2.9089e-06 1.10844e-09)
(-9.78142e-05 2.90683e-06 1.11717e-09)
(-9.85809e-05 2.90474e-06 1.12604e-09)
(-9.93599e-05 2.90264e-06 1.13505e-09)
(-5.03841e-07 3.31873e-06 -0.000612892)
(-9.3635e-05 3.41764e-06 3.48616e-10)
(-9.42785e-05 3.41907e-06 3.51016e-10)
(-9.49311e-05 3.42054e-06 3.53449e-10)
(-9.55926e-05 3.42203e-06 3.55916e-10)
(-9.62635e-05 3.42356e-06 3.58418e-10)
(-9.69438e-05 3.42512e-06 3.60955e-10)
(-9.76339e-05 3.42671e-06 3.63528e-10)
(-9.83338e-05 3.42834e-06 3.66139e-10)
(-9.90439e-05 3.43001e-06 3.68787e-10)
(-9.97642e-05 3.43171e-06 3.71473e-10)
(-0.000100495 3.43345e-06 3.74199e-10)
(-0.000101237 3.43524e-06 3.76965e-10)
(-0.00010199 3.43706e-06 3.79773e-10)
(-0.000102754 3.43893e-06 3.82623e-10)
(-0.000103529 3.44084e-06 3.85515e-10)
(-0.000104317 3.4428e-06 3.88452e-10)
(-0.000105116 3.4448e-06 3.91434e-10)
(-0.000105928 3.44685e-06 3.94462e-10)
(-0.000106752 3.44895e-06 3.97537e-10)
(-0.00010759 3.45111e-06 4.00661e-10)
(-0.00010844 3.45331e-06 4.03834e-10)
(-5.1293e-07 3.3167e-06 -0.000612417)
)
;

boundaryField
{
    inlet
    {
        type            calculated;
        value           uniform (0 0 0);
    }
    outlet2
    {
        type            calculated;
        value           uniform (0 0 0);
    }
    outlet1
    {
        type            calculated;
        value           uniform (0 0 0);
    }
    wall
    {
        type            calculated;
        value           uniform (0 0 0);
    }
    symmetryBottom
    {
        type            symmetry;
    }
    symmetryZ0
    {
        type            symmetry;
    }
    symmetryZ05
    {
        type            symmetry;
    }
}


// ************************************************************************* //
