/*--------------------------------*- C++ -*----------------------------------*\
| =========                 |                                                 |
| \\      /  F ield         | OpenFOAM: The Open Source CFD Toolbox           |
|  \\    /   O peration     | Version:  2412                                  |
|   \\  /    A nd           | Website:  www.openfoam.com                      |
|    \\/     M anipulation  |                                                 |
\*---------------------------------------------------------------------------*/
FoamFile
{
    version     2.0;
    format      ascii;
    arch        "LSB;label=32;scalar=64";
    class       volVectorField;
    location    "1.07831e-06";
    object      rhoU_dof0;
}
// * * * * * * * * * * * * * * * * * * * * * * * * * * * * * * * * * * * * * //

dimensions      [0 0 0 0 0 0 0];

internalField   nonuniform List<vector> 
625
(
(0.0754883 -3.51979e-07 -8.03772e-07)
(0.0623603 -5.19163e-07 -8.45069e-07)
(0.0623603 -5.19989e-07 9.91167e-09)
(0.0754903 -6.15977e-05 -8.03732e-07)
(0.0623621 -5.41499e-05 -8.45036e-07)
(0.0623622 -5.41508e-05 -7.09764e-11)
(0.0754883 -6.13968e-05 -8.03753e-07)
(0.0623603 -5.39676e-05 -8.45059e-07)
(0.0623603 -5.39683e-05 6.19426e-11)
(0.0754883 -6.13976e-05 -8.03753e-07)
(0.0623603 -5.39683e-05 -8.45059e-07)
(0.0623604 -5.39691e-05 6.14652e-11)
(0.0754883 -6.13976e-05 -8.03753e-07)
(0.0623603 -5.39683e-05 -8.45059e-07)
(0.0623604 -5.39691e-05 6.14665e-11)
(0.0754883 -6.13976e-05 -8.03753e-07)
(0.0623603 -5.39683e-05 -8.45059e-07)
(0.0623604 -5.39691e-05 6.14665e-11)
(0.0754883 -6.13976e-05 -8.03753e-07)
(0.0623603 -5.39683e-05 -8.45059e-07)
(0.0623604 -5.39691e-05 6.14665e-11)
(0.0754883 -6.13976e-05 -8.03753e-07)
(0.0623603 -5.39683e-05 -8.45059e-07)
(0.0623604 -5.39691e-05 6.14665e-11)
(0.0754883 -6.13976e-05 -8.03753e-07)
(0.0623603 -5.39683e-05 -8.45059e-07)
(0.0623604 -5.39691e-05 6.14665e-11)
(0.0754883 -6.13976e-05 -8.03753e-07)
(0.0623603 -5.39683e-05 -8.45059e-07)
(0.0623604 -5.39691e-05 6.14665e-11)
(0.0754883 -6.13976e-05 -8.03753e-07)
(0.0623603 -5.39683e-05 -8.45059e-07)
(0.0623604 -5.39691e-05 6.14665e-11)
(0.0754883 -6.13976e-05 -8.03753e-07)
(0.0623603 -5.39683e-05 -8.45059e-07)
(0.0623604 -5.39691e-05 6.14665e-11)
(0.0754883 -6.13976e-05 -8.03753e-07)
(0.0623603 -5.39683e-05 -8.45059e-07)
(0.0623604 -5.39691e-05 6.14665e-11)
(0.0754883 -6.13976e-05 -8.03753e-07)
(0.0623603 -5.39683e-05 -8.45059e-07)
(0.0623604 -5.39691e-05 6.14665e-11)
(0.0754883 -6.13976e-05 -8.03753e-07)
(0.0623603 -5.39683e-05 -8.45059e-07)
(0.0623604 -5.39691e-05 6.14665e-11)
(0.0754883 -6.13976e-05 -8.03753e-07)
(0.0623603 -5.39683e-05 -8.45059e-07)
(0.0623604 -5.39691e-05 6.14665e-11)
(0.0754883 -6.13976e-05 -8.03753e-07)
(0.0623603 -5.39683e-05 -8.45059e-07)
(0.0623604 -5.39691e-05 6.14665e-11)
(0.0754883 -6.13976e-05 -8.03753e-07)
(0.0623603 -5.39683e-05 -8.45059e-07)
(0.0623604 -5.39691e-05 6.14665e-11)
(0.0754883 -6.13976e-05 -8.03753e-07)
(0.0623603 -5.39683e-05 -8.45059e-07)
(0.0623604 -5.39691e-05 6.14665e-11)
(0.0754883 -6.13976e-05 -8.03753e-07)
(0.0623603 -5.39683e-05 -8.45059e-07)
(0.0623604 -5.39691e-05 6.14665e-11)
(0.0754883 -6.13976e-05 -8.03753e-07)
(0.0623603 -5.39683e-05 -8.45059e-07)
(0.0623604 -5.39691e-05 6.14665e-11)
(0.0754883 -6.13976e-05 -8.03753e-07)
(0.0623603 -5.39683e-05 -8.45059e-07)
(0.0623604 -5.39691e-05 6.14613e-11)
(0.0754883 -6.13976e-05 -8.03753e-07)
(0.0623603 -5.39683e-05 -8.45059e-07)
(0.0623604 -5.39691e-05 6.66415e-11)
(0.0754883 -6.13975e-05 -8.03753e-07)
(0.0623604 -5.39691e-05 -8.45059e-07)
(0.0623604 -5.39746e-05 -5.88743e-09)
(0.075489 -6.14364e-05 -8.04122e-07)
(0.0623576 -5.38047e-05 -8.4543e-07)
(0.0623577 -5.38101e-05 -8.48674e-07)
(0.064201 7.43835e-06 -9.65386e-07)
(0.0641999 7.55545e-06 -9.66124e-07)
(0.0641989 7.67528e-06 -9.66873e-07)
(0.0641978 7.79794e-06 -9.67633e-07)
(0.0641967 7.92351e-06 -9.68406e-07)
(0.0641956 8.05209e-06 -9.69191e-07)
(0.0641945 8.18377e-06 -9.69988e-07)
(0.0641933 8.31866e-06 -9.70798e-07)
(0.0641922 8.45685e-06 -9.7162e-07)
(0.064191 8.59846e-06 -9.72457e-07)
(0.0641899 8.7436e-06 -9.73307e-07)
(0.0641887 8.89238e-06 -9.74171e-07)
(0.0641875 9.04493e-06 -9.75049e-07)
(0.0641863 9.20137e-06 -9.75943e-07)
(0.0641851 9.36184e-06 -9.76851e-07)
(0.0641839 9.52648e-06 -9.77775e-07)
(0.0641826 9.69543e-06 -9.78715e-07)
(0.0641814 9.86884e-06 -9.79671e-07)
(0.0641801 1.00469e-05 -9.80644e-07)
(0.0641788 1.02297e-05 -9.81634e-07)
(0.0641775 1.04174e-05 -9.82642e-07)
(0.0642497 1.04196e-05 -1.5834e-08)
(0.0658751 -5.31796e-05 -8.91028e-07)
(0.0658856 -5.35205e-05 -8.91184e-07)
(0.0658964 -5.38657e-05 -8.91342e-07)
(0.0659072 -5.42152e-05 -8.91502e-07)
(0.0659182 -5.45692e-05 -8.91665e-07)
(0.0659294 -5.49276e-05 -8.9183e-07)
(0.0659408 -5.52907e-05 -8.91998e-07)
(0.0659523 -5.56584e-05 -8.92168e-07)
(0.065964 -5.60309e-05 -8.9234e-07)
(0.0659758 -5.64082e-05 -8.92515e-07)
(0.0659879 -5.67904e-05 -8.92693e-07)
(0.0660001 -5.71777e-05 -8.92873e-07)
(0.0660125 -5.75701e-05 -8.93057e-07)
(0.0660252 -5.79677e-05 -8.93242e-07)
(0.066038 -5.83707e-05 -8.93431e-07)
(0.066051 -5.8779e-05 -8.93623e-07)
(0.0660642 -5.91929e-05 -8.93818e-07)
(0.0660776 -5.96124e-05 -8.94015e-07)
(0.0660913 -6.00376e-05 -8.94216e-07)
(0.0661051 -6.04686e-05 -8.9442e-07)
(0.0661192 -6.09057e-05 -8.94628e-07)
(0.0661935 -6.09721e-05 -3.94181e-09)
(0.0657869 -5.71576e-05 -8.90304e-07)
(0.0657967 -5.75607e-05 -8.90454e-07)
(0.0658066 -5.79695e-05 -8.90607e-07)
(0.0658166 -5.83842e-05 -8.90762e-07)
(0.0658268 -5.88048e-05 -8.90919e-07)
(0.0658372 -5.92316e-05 -8.91078e-07)
(0.0658476 -5.96645e-05 -8.9124e-07)
(0.0658583 -6.01039e-05 -8.91404e-07)
(0.0658691 -6.05498e-05 -8.9157e-07)
(0.06588 -6.10024e-05 -8.91739e-07)
(0.0658912 -6.14618e-05 -8.9191e-07)
(0.0659024 -6.19282e-05 -8.92084e-07)
(0.0659139 -6.24017e-05 -8.92261e-07)
(0.0659255 -6.28825e-05 -8.9244e-07)
(0.0659373 -6.33708e-05 -8.92622e-07)
(0.0659493 -6.38668e-05 -8.92807e-07)
(0.0659615 -6.43706e-05 -8.92994e-07)
(0.0659739 -6.48824e-05 -8.93185e-07)
(0.0659865 -6.54024e-05 -8.93379e-07)
(0.0659992 -6.59309e-05 -8.93576e-07)
(0.0660122 -6.64679e-05 -8.93776e-07)
(0.0660864 -6.65378e-05 -2.49475e-09)
(0.065723 -5.7061e-05 -8.89627e-07)
(0.0657324 -5.74623e-05 -8.89772e-07)
(0.0657418 -5.78693e-05 -8.8992e-07)
(0.0657514 -5.82821e-05 -8.9007e-07)
(0.0657611 -5.87009e-05 -8.90222e-07)
(0.065771 -5.91257e-05 -8.90376e-07)
(0.065781 -5.95567e-05 -8.90533e-07)
(0.0657911 -5.9994e-05 -8.90692e-07)
(0.0658014 -6.04378e-05 -8.90853e-07)
(0.0658119 -6.08882e-05 -8.91016e-07)
(0.0658225 -6.13453e-05 -8.91182e-07)
(0.0658332 -6.18094e-05 -8.91351e-07)
(0.0658442 -6.22806e-05 -8.91521e-07)
(0.0658553 -6.27589e-05 -8.91695e-07)
(0.0658665 -6.32447e-05 -8.91871e-07)
(0.065878 -6.37381e-05 -8.9205e-07)
(0.0658896 -6.42392e-05 -8.92232e-07)
(0.0659014 -6.47483e-05 -8.92417e-07)
(0.0659134 -6.52655e-05 -8.92604e-07)
(0.0659256 -6.5791e-05 -8.92795e-07)
(0.065938 -6.63251e-05 -8.92988e-07)
(0.0660121 -6.63947e-05 -2.38364e-09)
(0.0656592 -5.70145e-05 -8.8895e-07)
(0.0656681 -5.74152e-05 -8.8909e-07)
(0.0656771 -5.78215e-05 -8.89233e-07)
(0.0656862 -5.82336e-05 -8.89378e-07)
(0.0656955 -5.86517e-05 -8.89526e-07)
(0.0657048 -5.90758e-05 -8.89675e-07)
(0.0657144 -5.95061e-05 -8.89826e-07)
(0.065724 -5.99427e-05 -8.8998e-07)
(0.0657338 -6.03857e-05 -8.90135e-07)
(0.0657438 -6.08353e-05 -8.90294e-07)
(0.0657539 -6.12917e-05 -8.90454e-07)
(0.0657641 -6.1755e-05 -8.90617e-07)
(0.0657745 -6.22253e-05 -8.90782e-07)
(0.0657851 -6.27029e-05 -8.9095e-07)
(0.0657958 -6.31878e-05 -8.91121e-07)
(0.0658067 -6.36803e-05 -8.91294e-07)
(0.0658178 -6.41805e-05 -8.91469e-07)
(0.065829 -6.46887e-05 -8.91648e-07)
(0.0658404 -6.5205e-05 -8.91829e-07)
(0.065852 -6.57295e-05 -8.92014e-07)
(0.0658638 -6.62626e-05 -8.92201e-07)
(0.0659378 -6.63321e-05 -2.26949e-09)
(0.0655954 -5.69677e-05 -8.88273e-07)
(0.0656039 -5.73677e-05 -8.88409e-07)
(0.0656124 -5.77734e-05 -8.88547e-07)
(0.0656211 -5.81848e-05 -8.88687e-07)
(0.0656299 -5.86022e-05 -8.88829e-07)
(0.0656388 -5.90256e-05 -8.88973e-07)
(0.0656478 -5.94551e-05 -8.8912e-07)
(0.065657 -5.9891e-05 -8.89268e-07)
(0.0656663 -6.03332e-05 -8.89419e-07)
(0.0656757 -6.07821e-05 -8.89571e-07)
(0.0656853 -6.12377e-05 -8.89726e-07)
(0.065695 -6.17001e-05 -8.89884e-07)
(0.0657049 -6.21697e-05 -8.90044e-07)
(0.0657149 -6.26464e-05 -8.90206e-07)
(0.0657251 -6.31304e-05 -8.9037e-07)
(0.0657355 -6.3622e-05 -8.90538e-07)
(0.065746 -6.41214e-05 -8.90707e-07)
(0.0657566 -6.46286e-05 -8.9088e-07)
(0.0657675 -6.51439e-05 -8.91055e-07)
(0.0657785 -6.56675e-05 -8.91233e-07)
(0.0657897 -6.61996e-05 -8.91414e-07)
(0.0658636 -6.62688e-05 -2.1552e-09)
(0.0655317 -5.69209e-05 -8.87597e-07)
(0.0655397 -5.73203e-05 -8.87728e-07)
(0.0655478 -5.77253e-05 -8.87861e-07)
(0.065556 -5.8136e-05 -8.87997e-07)
(0.0655643 -5.85527e-05 -8.88134e-07)
(0.0655727 -5.89754e-05 -8.88273e-07)
(0.0655813 -5.94042e-05 -8.88414e-07)
(0.06559 -5.98393e-05 -8.88557e-07)
(0.0655988 -6.02808e-05 -8.88702e-07)
(0.0656077 -6.07289e-05 -8.8885e-07)
(0.0656168 -6.11837e-05 -8.88999e-07)
(0.065626 -6.16453e-05 -8.89151e-07)
(0.0656354 -6.2114e-05 -8.89305e-07)
(0.0656449 -6.25899e-05 -8.89462e-07)
(0.0656545 -6.30731e-05 -8.89621e-07)
(0.0656643 -6.35638e-05 -8.89782e-07)
(0.0656742 -6.40622e-05 -8.89946e-07)
(0.0656843 -6.45685e-05 -8.90112e-07)
(0.0656946 -6.50829e-05 -8.90282e-07)
(0.065705 -6.56055e-05 -8.90453e-07)
(0.0657156 -6.61366e-05 -8.90628e-07)
(0.0657895 -6.62057e-05 -2.04083e-09)
(0.0654681 -5.68741e-05 -8.86921e-07)
(0.0654756 -5.72729e-05 -8.87047e-07)
(0.0654832 -5.76772e-05 -8.87176e-07)
(0.065491 -5.80873e-05 -8.87306e-07)
(0.0654988 -5.85033e-05 -8.87438e-07)
(0.0655068 -5.89252e-05 -8.87572e-07)
(0.0655149 -5.93533e-05 -8.87708e-07)
(0.0655231 -5.97877e-05 -8.87846e-07)
(0.0655314 -6.02284e-05 -8.87986e-07)
(0.0655398 -6.06757e-05 -8.88128e-07)
(0.0655484 -6.11297e-05 -8.88273e-07)
(0.0655571 -6.15906e-05 -8.88419e-07)
(0.0655659 -6.20584e-05 -8.88568e-07)
(0.0655749 -6.25334e-05 -8.88718e-07)
(0.065584 -6.30158e-05 -8.88872e-07)
(0.0655932 -6.35056e-05 -8.89027e-07)
(0.0656026 -6.40031e-05 -8.89185e-07)
(0.0656121 -6.45085e-05 -8.89345e-07)
(0.0656218 -6.50219e-05 -8.89508e-07)
(0.0656316 -6.55435e-05 -8.89674e-07)
(0.0656416 -6.60736e-05 -8.89842e-07)
(0.0657155 -6.61425e-05 -1.92638e-09)
(0.0654044 -5.68274e-05 -8.86245e-07)
(0.0654115 -5.72255e-05 -8.86367e-07)
(0.0654187 -5.76292e-05 -8.86491e-07)
(0.065426 -5.80386e-05 -8.86616e-07)
(0.0654334 -5.84538e-05 -8.86744e-07)
(0.0654409 -5.88751e-05 -8.86873e-07)
(0.0654485 -5.93025e-05 -8.87003e-07)
(0.0654562 -5.97361e-05 -8.87136e-07)
(0.065464 -6.01761e-05 -8.87271e-07)
(0.0654719 -6.06226e-05 -8.87408e-07)
(0.06548 -6.10758e-05 -8.87547e-07)
(0.0654882 -6.15359e-05 -8.87687e-07)
(0.0654965 -6.20029e-05 -8.8783e-07)
(0.0655049 -6.2477e-05 -8.87976e-07)
(0.0655135 -6.29585e-05 -8.88123e-07)
(0.0655222 -6.34475e-05 -8.88273e-07)
(0.065531 -6.39441e-05 -8.88425e-07)
(0.06554 -6.44485e-05 -8.88579e-07)
(0.0655491 -6.49609e-05 -8.88736e-07)
(0.0655583 -6.54816e-05 -8.88895e-07)
(0.0655677 -6.60107e-05 -8.89057e-07)
(0.0656415 -6.60794e-05 -1.81194e-09)
(0.0653409 -5.67805e-05 -8.8557e-07)
(0.0653475 -5.71779e-05 -8.85687e-07)
(0.0653542 -5.75809e-05 -8.85806e-07)
(0.0653611 -5.79896e-05 -8.85927e-07)
(0.065368 -5.84042e-05 -8.86049e-07)
(0.065375 -5.88247e-05 -8.86173e-07)
(0.0653821 -5.92514e-05 -8.86299e-07)
(0.0653894 -5.96843e-05 -8.86426e-07)
(0.0653967 -6.01235e-05 -8.86556e-07)
(0.0654041 -6.05693e-05 -8.86687e-07)
(0.0654117 -6.10217e-05 -8.8682e-07)
(0.0654194 -6.14809e-05 -8.86956e-07)
(0.0654271 -6.19471e-05 -8.87093e-07)
(0.065435 -6.24204e-05 -8.87233e-07)
(0.0654431 -6.2901e-05 -8.87374e-07)
(0.0654512 -6.33891e-05 -8.87518e-07)
(0.0654595 -6.38848e-05 -8.87664e-07)
(0.0654679 -6.43883e-05 -8.87813e-07)
(0.0654764 -6.48998e-05 -8.87963e-07)
(0.0654851 -6.54195e-05 -8.88117e-07)
(0.0654939 -6.59476e-05 -8.88272e-07)
(0.0655676 -6.60161e-05 -1.68841e-09)
(0.0652775 -5.67245e-05 -8.84871e-07)
(0.0652837 -5.71212e-05 -8.84983e-07)
(0.06529 -5.75234e-05 -8.85097e-07)
(0.0652964 -5.79314e-05 -8.85212e-07)
(0.0653028 -5.83452e-05 -8.85329e-07)
(0.0653094 -5.8765e-05 -8.85448e-07)
(0.065316 -5.91908e-05 -8.85569e-07)
(0.0653228 -5.96229e-05 -8.85691e-07)
(0.0653296 -6.00613e-05 -8.85815e-07)
(0.0653366 -6.05062e-05 -8.85941e-07)
(0.0653436 -6.09578e-05 -8.86069e-07)
(0.0653508 -6.14161e-05 -8.86198e-07)
(0.065358 -6.18814e-05 -8.8633e-07)
(0.0653654 -6.23538e-05 -8.86464e-07)
(0.0653729 -6.28335e-05 -8.86599e-07)
(0.0653805 -6.33205e-05 -8.86737e-07)
(0.0653882 -6.38152e-05 -8.86877e-07)
(0.0653961 -6.43177e-05 -8.87019e-07)
(0.065404 -6.48282e-05 -8.87164e-07)
(0.0654121 -6.53468e-05 -8.8731e-07)
(0.0654203 -6.58739e-05 -8.8746e-07)
(0.0654939 -6.59415e-05 -8.36736e-10)
(0.0652142 -5.66684e-05 -8.84171e-07)
(0.06522 -5.70643e-05 -8.84278e-07)
(0.0652258 -5.74659e-05 -8.84387e-07)
(0.0652317 -5.78731e-05 -8.84498e-07)
(0.0652377 -5.82862e-05 -8.8461e-07)
(0.0652438 -5.87052e-05 -8.84723e-07)
(0.06525 -5.91302e-05 -8.84838e-07)
(0.0652562 -5.95615e-05 -8.84955e-07)
(0.0652626 -5.9999e-05 -8.85074e-07)
(0.065269 -6.04431e-05 -8.85194e-07)
(0.0652756 -6.08938e-05 -8.85316e-07)
(0.0652822 -6.13512e-05 -8.8544e-07)
(0.065289 -6.18156e-05 -8.85566e-07)
(0.0652958 -6.22871e-05 -8.85694e-07)
(0.0653028 -6.27658e-05 -8.85824e-07)
(0.0653098 -6.32519e-05 -8.85956e-07)
(0.065317 -6.37457e-05 -8.86089e-07)
(0.0653243 -6.42471e-05 -8.86225e-07)
(0.0653317 -6.47566e-05 -8.86363e-07)
(0.0653392 -6.52742e-05 -8.86504e-07)
(0.0653468 -6.58001e-05 -8.86646e-07)
(0.0654203 -6.58677e-05 -7.55741e-10)
(0.065151 -5.66122e-05 -8.83472e-07)
(0.0651563 -5.70074e-05 -8.83574e-07)
(0.0651617 -5.74082e-05 -8.83678e-07)
(0.0651671 -5.78147e-05 -8.83783e-07)
(0.0651727 -5.8227e-05 -8.8389e-07)
(0.0651783 -5.86452e-05 -8.83999e-07)
(0.065184 -5.90695e-05 -8.84108e-07)
(0.0651898 -5.94999e-05 -8.8422e-07)
(0.0651956 -5.99367e-05 -8.84333e-07)
(0.0652016 -6.03799e-05 -8.84448e-07)
(0.0652076 -6.08297e-05 -8.84565e-07)
(0.0652138 -6.12863e-05 -8.84683e-07)
(0.06522 -6.17498e-05 -8.84803e-07)
(0.0652263 -6.22203e-05 -8.84925e-07)
(0.0652327 -6.26981e-05 -8.85049e-07)
(0.0652392 -6.31832e-05 -8.85175e-07)
(0.0652458 -6.3676e-05 -8.85302e-07)
(0.0652526 -6.41764e-05 -8.85432e-07)
(0.0652594 -6.46848e-05 -8.85564e-07)
(0.0652663 -6.52014e-05 -8.85698e-07)
(0.0652734 -6.57262e-05 -8.85834e-07)
(0.0653468 -6.57938e-05 -6.927e-10)
(0.0650878 -5.65559e-05 -8.82773e-07)
(0.0650926 -5.69504e-05 -8.8287e-07)
(0.0650976 -5.73505e-05 -8.82969e-07)
(0.0651026 -5.77562e-05 -8.83069e-07)
(0.0651077 -5.81678e-05 -8.83171e-07)
(0.0651128 -5.85852e-05 -8.83274e-07)
(0.065118 -5.90086e-05 -8.83379e-07)
(0.0651233 -5.94383e-05 -8.83485e-07)
(0.0651287 -5.98742e-05 -8.83593e-07)
(0.0651342 -6.03166e-05 -8.83702e-07)
(0.0651397 -6.07655e-05 -8.83813e-07)
(0.0651453 -6.12212e-05 -8.83926e-07)
(0.0651511 -6.16838e-05 -8.8404e-07)
(0.0651568 -6.21534e-05 -8.84157e-07)
(0.0651627 -6.26302e-05 -8.84274e-07)
(0.0651687 -6.31144e-05 -8.84394e-07)
(0.0651748 -6.36062e-05 -8.84516e-07)
(0.0651809 -6.41056e-05 -8.84639e-07)
(0.0651872 -6.4613e-05 -8.84765e-07)
(0.0651936 -6.51284e-05 -8.84892e-07)
(0.0652 -6.56522e-05 -8.85021e-07)
(0.0652734 -6.57197e-05 -6.29794e-10)
(0.0650246 -5.64995e-05 -8.82074e-07)
(0.0650291 -5.68933e-05 -8.82167e-07)
(0.0650336 -5.72927e-05 -8.82261e-07)
(0.0650381 -5.76977e-05 -8.82356e-07)
(0.0650427 -5.81084e-05 -8.82453e-07)
(0.0650474 -5.85251e-05 -8.82551e-07)
(0.0650522 -5.89477e-05 -8.8265e-07)
(0.065057 -5.93765e-05 -8.82751e-07)
(0.0650619 -5.98116e-05 -8.82853e-07)
(0.0650668 -6.02531e-05 -8.82957e-07)
(0.0650719 -6.07012e-05 -8.83063e-07)
(0.065077 -6.1156e-05 -8.8317e-07)
(0.0650822 -6.16177e-05 -8.83278e-07)
(0.0650875 -6.20864e-05 -8.83389e-07)
(0.0650928 -6.25623e-05 -8.83501e-07)
(0.0650982 -6.30455e-05 -8.83614e-07)
(0.0651038 -6.35362e-05 -8.8373e-07)
(0.0651094 -6.40347e-05 -8.83847e-07)
(0.0651151 -6.4541e-05 -8.83966e-07)
(0.0651209 -6.50554e-05 -8.84087e-07)
(0.0651267 -6.55781e-05 -8.8421e-07)
(0.0652 -6.56456e-05 -5.67043e-10)
(0.0649616 -5.64431e-05 -8.81376e-07)
(0.0649655 -5.68361e-05 -8.81464e-07)
(0.0649696 -5.72348e-05 -8.81553e-07)
(0.0649737 -5.7639e-05 -8.81643e-07)
(0.0649778 -5.8049e-05 -8.81735e-07)
(0.0649821 -5.84648e-05 -8.81827e-07)
(0.0649863 -5.88867e-05 -8.81922e-07)
(0.0649907 -5.93147e-05 -8.82017e-07)
(0.0649951 -5.9749e-05 -8.82114e-07)
(0.0649996 -6.01896e-05 -8.82213e-07)
(0.0650041 -6.06368e-05 -8.82312e-07)
(0.0650087 -6.10908e-05 -8.82414e-07)
(0.0650134 -6.15515e-05 -8.82517e-07)
(0.0650181 -6.20193e-05 -8.82621e-07)
(0.065023 -6.24942e-05 -8.82727e-07)
(0.0650279 -6.29765e-05 -8.82835e-07)
(0.0650328 -6.34662e-05 -8.82944e-07)
(0.0650379 -6.39637e-05 -8.83055e-07)
(0.065043 -6.44689e-05 -8.83168e-07)
(0.0650482 -6.49823e-05 -8.83283e-07)
(0.0650535 -6.55039e-05 -8.83399e-07)
(0.0651267 -6.55713e-05 -5.0445e-10)
(0.0648985 -5.63865e-05 -8.80678e-07)
(0.0649021 -5.67789e-05 -8.80761e-07)
(0.0649057 -5.71767e-05 -8.80845e-07)
(0.0649093 -5.75802e-05 -8.80931e-07)
(0.064913 -5.79894e-05 -8.81017e-07)
(0.0649168 -5.84045e-05 -8.81105e-07)
(0.0649206 -5.88256e-05 -8.81194e-07)
(0.0649245 -5.92528e-05 -8.81284e-07)
(0.0649284 -5.96862e-05 -8.81375e-07)
(0.0649324 -6.0126e-05 -8.81468e-07)
(0.0649364 -6.05724e-05 -8.81563e-07)
(0.0649405 -6.10254e-05 -8.81658e-07)
(0.0649447 -6.14852e-05 -8.81756e-07)
(0.0649489 -6.19521e-05 -8.81854e-07)
(0.0649532 -6.2426e-05 -8.81954e-07)
(0.0649575 -6.29073e-05 -8.82056e-07)
(0.064962 -6.33961e-05 -8.82159e-07)
(0.0649665 -6.38925e-05 -8.82264e-07)
(0.064971 -6.43968e-05 -8.82371e-07)
(0.0649757 -6.4909e-05 -8.82479e-07)
(0.0649804 -6.54295e-05 -8.82589e-07)
(0.0650535 -6.54969e-05 -4.42013e-10)
(0.0648356 -5.63299e-05 -8.79981e-07)
(0.0648387 -5.67215e-05 -8.80059e-07)
(0.0648418 -5.71186e-05 -8.80138e-07)
(0.064845 -5.75214e-05 -8.80219e-07)
(0.0648483 -5.79298e-05 -8.803e-07)
(0.0648516 -5.83441e-05 -8.80382e-07)
(0.0648549 -5.87644e-05 -8.80466e-07)
(0.0648583 -5.91907e-05 -8.80551e-07)
(0.0648617 -5.96233e-05 -8.80637e-07)
(0.0648652 -6.00623e-05 -8.80725e-07)
(0.0648688 -6.05078e-05 -8.80813e-07)
(0.0648723 -6.09599e-05 -8.80904e-07)
(0.064876 -6.14188e-05 -8.80995e-07)
(0.0648797 -6.18848e-05 -8.81088e-07)
(0.0648835 -6.23578e-05 -8.81182e-07)
(0.0648873 -6.28381e-05 -8.81278e-07)
(0.0648912 -6.33259e-05 -8.81375e-07)
(0.0648951 -6.38213e-05 -8.81474e-07)
(0.0648991 -6.43245e-05 -8.81574e-07)
(0.0649032 -6.48357e-05 -8.81676e-07)
(0.0649073 -6.53551e-05 -8.81779e-07)
(0.0649804 -6.54225e-05 -3.79734e-10)
(0.0647726 -5.62731e-05 -8.79285e-07)
(0.0647753 -5.66641e-05 -8.79358e-07)
(0.064778 -5.70604e-05 -8.79432e-07)
(0.0647808 -5.74624e-05 -8.79507e-07)
(0.0647836 -5.78701e-05 -8.79583e-07)
(0.0647864 -5.82836e-05 -8.79661e-07)
(0.0647893 -5.87031e-05 -8.79739e-07)
(0.0647922 -5.91286e-05 -8.79819e-07)
(0.0647951 -5.95604e-05 -8.799e-07)
(0.0647981 -5.99985e-05 -8.79982e-07)
(0.0648012 -6.04431e-05 -8.80065e-07)
(0.0648043 -6.08943e-05 -8.80149e-07)
(0.0648074 -6.13524e-05 -8.80235e-07)
(0.0648106 -6.18173e-05 -8.80322e-07)
(0.0648138 -6.22894e-05 -8.8041e-07)
(0.0648171 -6.27688e-05 -8.805e-07)
(0.0648204 -6.32555e-05 -8.80591e-07)
(0.0648238 -6.37499e-05 -8.80684e-07)
(0.0648273 -6.42521e-05 -8.80778e-07)
(0.0648308 -6.47622e-05 -8.80873e-07)
(0.0648343 -6.52806e-05 -8.8097e-07)
(0.0649073 -6.53479e-05 -3.17613e-10)
(0.0647098 -5.62163e-05 -8.78588e-07)
(0.064712 -5.66065e-05 -8.78657e-07)
(0.0647143 -5.70022e-05 -8.78726e-07)
(0.0647166 -5.74034e-05 -8.78796e-07)
(0.0647189 -5.78103e-05 -8.78867e-07)
(0.0647213 -5.8223e-05 -8.78939e-07)
(0.0647237 -5.86417e-05 -8.79013e-07)
(0.0647261 -5.90664e-05 -8.79087e-07)
(0.0647286 -5.94973e-05 -8.79162e-07)
(0.0647311 -5.99346e-05 -8.79239e-07)
(0.0647336 -6.03783e-05 -8.79317e-07)
(0.0647362 -6.08287e-05 -8.79395e-07)
(0.0647389 -6.12858e-05 -8.79475e-07)
(0.0647415 -6.17498e-05 -8.79557e-07)
(0.0647442 -6.2221e-05 -8.79639e-07)
(0.064747 -6.26993e-05 -8.79723e-07)
(0.0647498 -6.31851e-05 -8.79808e-07)
(0.0647526 -6.36785e-05 -8.79894e-07)
(0.0647555 -6.41796e-05 -8.79982e-07)
(0.0647584 -6.46887e-05 -8.80071e-07)
(0.0647614 -6.52059e-05 -8.80162e-07)
(0.0648343 -6.52732e-05 -2.55649e-10)
(0.064647 -5.61594e-05 -8.77892e-07)
(0.0646488 -5.65489e-05 -8.77956e-07)
(0.0646506 -5.69438e-05 -8.7802e-07)
(0.0646524 -5.73443e-05 -8.78085e-07)
(0.0646543 -5.77504e-05 -8.78151e-07)
(0.0646562 -5.81624e-05 -8.78219e-07)
(0.0646582 -5.85802e-05 -8.78287e-07)
(0.0646601 -5.90041e-05 -8.78356e-07)
(0.0646621 -5.94342e-05 -8.78426e-07)
(0.0646641 -5.98706e-05 -8.78497e-07)
(0.0646662 -6.03135e-05 -8.78569e-07)
(0.0646683 -6.07629e-05 -8.78642e-07)
(0.0646704 -6.12191e-05 -8.78716e-07)
(0.0646725 -6.16822e-05 -8.78792e-07)
(0.0646747 -6.21524e-05 -8.78868e-07)
(0.0646769 -6.26298e-05 -8.78946e-07)
(0.0646792 -6.31146e-05 -8.79025e-07)
(0.0646815 -6.36069e-05 -8.79105e-07)
(0.0646838 -6.4107e-05 -8.79187e-07)
(0.0646861 -6.4615e-05 -8.7927e-07)
(0.0646885 -6.51312e-05 -8.79354e-07)
(0.0647614 -6.51984e-05 -1.93844e-10)
(0.0645842 -5.61024e-05 -8.77197e-07)
(0.0645856 -5.64912e-05 -8.77256e-07)
(0.064587 -5.68854e-05 -8.77315e-07)
(0.0645884 -5.72851e-05 -8.77375e-07)
(0.0645898 -5.76905e-05 -8.77436e-07)
(0.0645912 -5.81016e-05 -8.77498e-07)
(0.0645927 -5.85187e-05 -8.77561e-07)
(0.0645942 -5.89417e-05 -8.77625e-07)
(0.0645957 -5.9371e-05 -8.77689e-07)
(0.0645972 -5.98065e-05 -8.77755e-07)
(0.0645988 -6.02485e-05 -8.77822e-07)
(0.0646004 -6.06971e-05 -8.77889e-07)
(0.064602 -6.11524e-05 -8.77958e-07)
(0.0646036 -6.16145e-05 -8.78028e-07)
(0.0646053 -6.20838e-05 -8.78098e-07)
(0.0646069 -6.25602e-05 -8.7817e-07)
(0.0646087 -6.3044e-05 -8.78243e-07)
(0.0646104 -6.35353e-05 -8.78317e-07)
(0.0646122 -6.40343e-05 -8.78392e-07)
(0.0646139 -6.45413e-05 -8.78469e-07)
(0.0646158 -6.50563e-05 -8.78546e-07)
(0.0646885 -6.51235e-05 -1.32197e-10)
(0.0645215 -5.60454e-05 -8.76502e-07)
(0.0645224 -5.64334e-05 -8.76556e-07)
(0.0645234 -5.68268e-05 -8.7661e-07)
(0.0645243 -5.72258e-05 -8.76665e-07)
(0.0645253 -5.76304e-05 -8.76721e-07)
(0.0645263 -5.80408e-05 -8.76778e-07)
(0.0645273 -5.8457e-05 -8.76836e-07)
(0.0645283 -5.88793e-05 -8.76894e-07)
(0.0645294 -5.93077e-05 -8.76954e-07)
(0.0645304 -5.97424e-05 -8.77014e-07)
(0.0645315 -6.01835e-05 -8.77075e-07)
(0.0645325 -6.06311e-05 -8.77137e-07)
(0.0645336 -6.10855e-05 -8.772e-07)
(0.0645348 -6.15467e-05 -8.77264e-07)
(0.0645359 -6.2015e-05 -8.77329e-07)
(0.064537 -6.24904e-05 -8.77395e-07)
(0.0645382 -6.29732e-05 -8.77461e-07)
(0.0645394 -6.34635e-05 -8.77529e-07)
(0.0645406 -6.39615e-05 -8.77598e-07)
(0.0645418 -6.44674e-05 -8.77669e-07)
(0.0645431 -6.49814e-05 -8.7774e-07)
(0.0646157 -6.50485e-05 -7.07314e-11)
(0.0644589 -5.5989e-05 -8.75808e-07)
(0.0644594 -5.63763e-05 -8.75857e-07)
(0.0644599 -5.6769e-05 -8.75906e-07)
(0.0644604 -5.71672e-05 -8.75957e-07)
(0.0644609 -5.75711e-05 -8.76007e-07)
(0.0644614 -5.79807e-05 -8.76059e-07)
(0.064462 -5.83961e-05 -8.76112e-07)
(0.0644625 -5.88176e-05 -8.76165e-07)
(0.0644631 -5.92451e-05 -8.76219e-07)
(0.0644636 -5.9679e-05 -8.76274e-07)
(0.0644642 -6.01192e-05 -8.76329e-07)
(0.0644648 -6.0566e-05 -8.76386e-07)
(0.0644654 -6.10195e-05 -8.76443e-07)
(0.064466 -6.14798e-05 -8.76501e-07)
(0.0644666 -6.19471e-05 -8.7656e-07)
(0.0644672 -6.24216e-05 -8.7662e-07)
(0.0644678 -6.29034e-05 -8.76681e-07)
(0.0644685 -6.33927e-05 -8.76743e-07)
(0.0644691 -6.38896e-05 -8.76806e-07)
(0.0644698 -6.43945e-05 -8.76869e-07)
(0.0644704 -6.49073e-05 -8.76934e-07)
(0.0645431 -6.49744e-05 1.20964e-11)
(0.0643938 -5.57815e-05 -8.75505e-07)
(0.0643938 -5.6167e-05 -8.75551e-07)
(0.0643939 -5.65579e-05 -8.75599e-07)
(0.0643939 -5.69543e-05 -8.75647e-07)
(0.064394 -5.73563e-05 -8.75696e-07)
(0.064394 -5.7764e-05 -8.75745e-07)
(0.0643941 -5.81775e-05 -8.75795e-07)
(0.0643941 -5.8597e-05 -8.75846e-07)
(0.0643942 -5.90226e-05 -8.75898e-07)
(0.0643942 -5.94545e-05 -8.7595e-07)
(0.0643943 -5.98926e-05 -8.76004e-07)
(0.0643944 -6.03373e-05 -8.76058e-07)
(0.0643944 -6.07887e-05 -8.76112e-07)
(0.0643945 -6.12468e-05 -8.76168e-07)
(0.0643946 -6.1712e-05 -8.76225e-07)
(0.0643946 -6.21842e-05 -8.76282e-07)
(0.0643947 -6.26637e-05 -8.7634e-07)
(0.0643948 -6.31507e-05 -8.76399e-07)
(0.0643948 -6.36453e-05 -8.7646e-07)
(0.0643949 -6.41477e-05 -8.76521e-07)
(0.064395 -6.46581e-05 -8.76583e-07)
(0.0644677 -6.47384e-05 -1.13766e-08)
)
;

boundaryField
{
    inlet
    {
        type            calculated;
        value           uniform (0.0741049 0 0);
    }
    outlet2
    {
        type            calculated;
        value           uniform (0.0741049 0 0);
    }
    outlet1
    {
        type            calculated;
        value           uniform (0.0741049 0 0);
    }
    wall
    {
        type            calculated;
        value           uniform (0.0741049 0 0);
    }
    symmetryBottom
    {
        type            symmetry;
    }
    symmetryZ0
    {
        type            symmetry;
    }
    symmetryZ05
    {
        type            symmetry;
    }
}


// ************************************************************************* //
