/*--------------------------------*- C++ -*----------------------------------*\
| =========                 |                                                 |
| \\      /  F ield         | OpenFOAM: The Open Source CFD Toolbox           |
|  \\    /   O peration     | Version:  2412                                  |
|   \\  /    A nd           | Website:  www.openfoam.com                      |
|    \\/     M anipulation  |                                                 |
\*---------------------------------------------------------------------------*/
FoamFile
{
    version     2.0;
    format      ascii;
    arch        "LSB;label=32;scalar=64";
    class       volVectorField;
    location    "1.07831e-06";
    object      rhoU;
}
// * * * * * * * * * * * * * * * * * * * * * * * * * * * * * * * * * * * * * //

dimensions      [0 0 0 0 0 0 0];

internalField   nonuniform List<vector> 
625
(
(0.0754883 -3.51979e-07 -8.03772e-07)
(0.0623603 -5.19163e-07 -8.45069e-07)
(0.0623603 -5.19989e-07 9.91167e-09)
(0.0754903 -6.15977e-05 -8.03732e-07)
(0.0623621 -5.41499e-05 -8.45036e-07)
(0.0623622 -5.41508e-05 -7.09764e-11)
(0.0754883 -6.13968e-05 -8.03753e-07)
(0.0623603 -5.39676e-05 -8.45059e-07)
(0.0623603 -5.39683e-05 6.19426e-11)
(0.0754883 -6.13976e-05 -8.03753e-07)
(0.0623603 -5.39683e-05 -8.45059e-07)
(0.0623604 -5.39691e-05 6.14652e-11)
(0.0754883 -6.13976e-05 -8.03753e-07)
(0.0623603 -5.39683e-05 -8.45059e-07)
(0.0623604 -5.39691e-05 6.14665e-11)
(0.0754883 -6.13976e-05 -8.03753e-07)
(0.0623603 -5.39683e-05 -8.45059e-07)
(0.0623604 -5.39691e-05 6.14665e-11)
(0.0754883 -6.13976e-05 -8.03753e-07)
(0.0623603 -5.39683e-05 -8.45059e-07)
(0.0623604 -5.39691e-05 6.14665e-11)
(0.0754883 -6.13976e-05 -8.03753e-07)
(0.0623603 -5.39683e-05 -8.45059e-07)
(0.0623604 -5.39691e-05 6.14665e-11)
(0.0754883 -6.13976e-05 -8.03753e-07)
(0.0623603 -5.39683e-05 -8.45059e-07)
(0.0623604 -5.39691e-05 6.14665e-11)
(0.0754883 -6.13976e-05 -8.03753e-07)
(0.0623603 -5.39683e-05 -8.45059e-07)
(0.0623604 -5.39691e-05 6.14665e-11)
(0.0754883 -6.13976e-05 -8.03753e-07)
(0.0623603 -5.39683e-05 -8.45059e-07)
(0.0623604 -5.39691e-05 6.14665e-11)
(0.0754883 -6.13976e-05 -8.03753e-07)
(0.0623603 -5.39683e-05 -8.45059e-07)
(0.0623604 -5.39691e-05 6.14665e-11)
(0.0754883 -6.13976e-05 -8.03753e-07)
(0.0623603 -5.39683e-05 -8.45059e-07)
(0.0623604 -5.39691e-05 6.14665e-11)
(0.0754883 -6.13976e-05 -8.03753e-07)
(0.0623603 -5.39683e-05 -8.45059e-07)
(0.0623604 -5.39691e-05 6.14665e-11)
(0.0754883 -6.13976e-05 -8.03753e-07)
(0.0623603 -5.39683e-05 -8.45059e-07)
(0.0623604 -5.39691e-05 6.14665e-11)
(0.0754883 -6.13976e-05 -8.03753e-07)
(0.0623603 -5.39683e-05 -8.45059e-07)
(0.0623604 -5.39691e-05 6.14665e-11)
(0.0754883 -6.13976e-05 -8.03753e-07)
(0.0623603 -5.39683e-05 -8.45059e-07)
(0.0623604 -5.39691e-05 6.14665e-11)
(0.0754883 -6.13976e-05 -8.03753e-07)
(0.0623603 -5.39683e-05 -8.45059e-07)
(0.0623604 -5.39691e-05 6.14665e-11)
(0.0754883 -6.13976e-05 -8.03753e-07)
(0.0623603 -5.39683e-05 -8.45059e-07)
(0.0623604 -5.39691e-05 6.14665e-11)
(0.0754883 -6.13976e-05 -8.03753e-07)
(0.0623603 -5.39683e-05 -8.45059e-07)
(0.0623604 -5.39691e-05 6.14665e-11)
(0.0754883 -6.13976e-05 -8.03753e-07)
(0.0623603 -5.39683e-05 -8.45059e-07)
(0.0623604 -5.39691e-05 6.14665e-11)
(0.0754883 -6.13976e-05 -8.03753e-07)
(0.0623603 -5.39683e-05 -8.45059e-07)
(0.0623604 -5.39691e-05 6.14613e-11)
(0.0754883 -6.13976e-05 -8.03753e-07)
(0.0623603 -5.39683e-05 -8.45059e-07)
(0.0623604 -5.39691e-05 6.66415e-11)
(0.0754883 -6.13975e-05 -8.03753e-07)
(0.0623604 -5.39691e-05 -8.45059e-07)
(0.0623604 -5.39746e-05 -5.88743e-09)
(0.075489 -6.14364e-05 -8.04122e-07)
(0.0623576 -5.38047e-05 -8.4543e-07)
(0.0623577 -5.38101e-05 -8.48674e-07)
(0.0642009 7.43835e-06 -9.61816e-07)
(0.0641999 7.55544e-06 -9.62526e-07)
(0.0641988 7.67527e-06 -9.63248e-07)
(0.0641977 7.79793e-06 -9.6398e-07)
(0.0641966 7.9235e-06 -9.64724e-07)
(0.0641955 8.05208e-06 -9.6548e-07)
(0.0641944 8.18377e-06 -9.66248e-07)
(0.0641932 8.31865e-06 -9.67028e-07)
(0.0641921 8.45684e-06 -9.6782e-07)
(0.0641909 8.59845e-06 -9.68626e-07)
(0.0641898 8.74359e-06 -9.69444e-07)
(0.0641886 8.89237e-06 -9.70277e-07)
(0.0641874 9.04492e-06 -9.71123e-07)
(0.0641862 9.20136e-06 -9.71983e-07)
(0.064185 9.36183e-06 -9.72858e-07)
(0.0641837 9.52647e-06 -9.73748e-07)
(0.0641825 9.69542e-06 -9.74653e-07)
(0.0641812 9.86883e-06 -9.75574e-07)
(0.06418 1.00469e-05 -9.76511e-07)
(0.0641787 1.02297e-05 -9.77464e-07)
(0.0641774 1.04174e-05 -9.78435e-07)
(0.0642489 1.04196e-05 -1.58339e-08)
(0.065875 -5.31795e-05 -8.87701e-07)
(0.0658856 -5.35204e-05 -8.87833e-07)
(0.0658963 -5.38656e-05 -8.87968e-07)
(0.0659071 -5.42151e-05 -8.88104e-07)
(0.0659181 -5.45691e-05 -8.88242e-07)
(0.0659293 -5.49275e-05 -8.88383e-07)
(0.0659407 -5.52906e-05 -8.88525e-07)
(0.0659522 -5.56583e-05 -8.8867e-07)
(0.0659639 -5.60308e-05 -8.88816e-07)
(0.0659757 -5.64081e-05 -8.88965e-07)
(0.0659878 -5.67903e-05 -8.89116e-07)
(0.066 -5.71776e-05 -8.89269e-07)
(0.0660124 -5.757e-05 -8.89425e-07)
(0.066025 -5.79676e-05 -8.89583e-07)
(0.0660378 -5.83706e-05 -8.89743e-07)
(0.0660509 -5.87789e-05 -8.89906e-07)
(0.0660641 -5.91928e-05 -8.90071e-07)
(0.0660775 -5.96123e-05 -8.90239e-07)
(0.0660912 -6.00375e-05 -8.9041e-07)
(0.066105 -6.04685e-05 -8.90584e-07)
(0.0661191 -6.09055e-05 -8.9076e-07)
(0.0661927 -6.09714e-05 -3.94178e-09)
(0.0657868 -5.71576e-05 -8.86979e-07)
(0.0657966 -5.75606e-05 -8.87106e-07)
(0.0658065 -5.79694e-05 -8.87235e-07)
(0.0658165 -5.83841e-05 -8.87365e-07)
(0.0658267 -5.88047e-05 -8.87498e-07)
(0.0658371 -5.92315e-05 -8.87633e-07)
(0.0658475 -5.96645e-05 -8.87769e-07)
(0.0658582 -6.01038e-05 -8.87908e-07)
(0.065869 -6.05497e-05 -8.88048e-07)
(0.0658799 -6.10023e-05 -8.88191e-07)
(0.065891 -6.14617e-05 -8.88335e-07)
(0.0659023 -6.19281e-05 -8.88482e-07)
(0.0659138 -6.24016e-05 -8.88631e-07)
(0.0659254 -6.28824e-05 -8.88783e-07)
(0.0659372 -6.33707e-05 -8.88936e-07)
(0.0659492 -6.38667e-05 -8.89092e-07)
(0.0659614 -6.43705e-05 -8.89251e-07)
(0.0659738 -6.48823e-05 -8.89412e-07)
(0.0659863 -6.54023e-05 -8.89575e-07)
(0.0659991 -6.59307e-05 -8.89742e-07)
(0.0660121 -6.64678e-05 -8.89911e-07)
(0.0660856 -6.65371e-05 -2.49473e-09)
(0.0657229 -5.70609e-05 -8.86305e-07)
(0.0657323 -5.74622e-05 -8.86427e-07)
(0.0657417 -5.78692e-05 -8.86551e-07)
(0.0657513 -5.82821e-05 -8.86677e-07)
(0.065761 -5.87008e-05 -8.86805e-07)
(0.0657709 -5.91256e-05 -8.86934e-07)
(0.0657809 -5.95566e-05 -8.87066e-07)
(0.065791 -5.99939e-05 -8.87199e-07)
(0.0658013 -6.04377e-05 -8.87334e-07)
(0.0658118 -6.08881e-05 -8.87471e-07)
(0.0658224 -6.13452e-05 -8.87611e-07)
(0.0658331 -6.18093e-05 -8.87752e-07)
(0.0658441 -6.22805e-05 -8.87896e-07)
(0.0658552 -6.27588e-05 -8.88041e-07)
(0.0658664 -6.32446e-05 -8.88189e-07)
(0.0658779 -6.3738e-05 -8.8834e-07)
(0.0658895 -6.42391e-05 -8.88492e-07)
(0.0659013 -6.47482e-05 -8.88647e-07)
(0.0659133 -6.52654e-05 -8.88805e-07)
(0.0659255 -6.57909e-05 -8.88965e-07)
(0.0659378 -6.6325e-05 -8.89127e-07)
(0.0660113 -6.6394e-05 -2.38362e-09)
(0.0656591 -5.70144e-05 -8.8563e-07)
(0.065668 -5.74151e-05 -8.85748e-07)
(0.065677 -5.78214e-05 -8.85867e-07)
(0.0656861 -5.82336e-05 -8.85988e-07)
(0.0656954 -5.86516e-05 -8.86111e-07)
(0.0657047 -5.90757e-05 -8.86236e-07)
(0.0657143 -5.9506e-05 -8.86362e-07)
(0.0657239 -5.99426e-05 -8.8649e-07)
(0.0657337 -6.03856e-05 -8.8662e-07)
(0.0657437 -6.08352e-05 -8.86752e-07)
(0.0657538 -6.12916e-05 -8.86886e-07)
(0.065764 -6.17549e-05 -8.87022e-07)
(0.0657744 -6.22252e-05 -8.8716e-07)
(0.065785 -6.27028e-05 -8.873e-07)
(0.0657957 -6.31877e-05 -8.87442e-07)
(0.0658066 -6.36802e-05 -8.87587e-07)
(0.0658176 -6.41804e-05 -8.87733e-07)
(0.0658289 -6.46886e-05 -8.87882e-07)
(0.0658403 -6.52049e-05 -8.88034e-07)
(0.0658519 -6.57294e-05 -8.88187e-07)
(0.0658636 -6.62625e-05 -8.88344e-07)
(0.065937 -6.63313e-05 -2.26947e-09)
(0.0655953 -5.69676e-05 -8.84957e-07)
(0.0656038 -5.73676e-05 -8.85069e-07)
(0.0656123 -5.77733e-05 -8.85184e-07)
(0.065621 -5.81847e-05 -8.853e-07)
(0.0656297 -5.86021e-05 -8.85418e-07)
(0.0656387 -5.90255e-05 -8.85537e-07)
(0.0656477 -5.9455e-05 -8.85659e-07)
(0.0656569 -5.98909e-05 -8.85782e-07)
(0.0656662 -6.03331e-05 -8.85906e-07)
(0.0656756 -6.0782e-05 -8.86033e-07)
(0.0656852 -6.12376e-05 -8.86162e-07)
(0.0656949 -6.17001e-05 -8.86292e-07)
(0.0657048 -6.21696e-05 -8.86425e-07)
(0.0657148 -6.26463e-05 -8.86559e-07)
(0.065725 -6.31303e-05 -8.86695e-07)
(0.0657353 -6.36219e-05 -8.86834e-07)
(0.0657458 -6.41213e-05 -8.86975e-07)
(0.0657565 -6.46285e-05 -8.87118e-07)
(0.0657673 -6.51438e-05 -8.87263e-07)
(0.0657783 -6.56674e-05 -8.87411e-07)
(0.0657895 -6.61994e-05 -8.87561e-07)
(0.0658628 -6.62681e-05 -2.15518e-09)
(0.0655316 -5.69208e-05 -8.84283e-07)
(0.0655396 -5.73202e-05 -8.84391e-07)
(0.0655477 -5.77252e-05 -8.84501e-07)
(0.0655559 -5.8136e-05 -8.84612e-07)
(0.0655642 -5.85526e-05 -8.84725e-07)
(0.0655726 -5.89753e-05 -8.8484e-07)
(0.0655812 -5.94041e-05 -8.84956e-07)
(0.0655899 -5.98392e-05 -8.85074e-07)
(0.0655987 -6.02807e-05 -8.85193e-07)
(0.0656076 -6.07288e-05 -8.85315e-07)
(0.0656167 -6.11836e-05 -8.85438e-07)
(0.0656259 -6.16453e-05 -8.85563e-07)
(0.0656353 -6.21139e-05 -8.8569e-07)
(0.0656448 -6.25898e-05 -8.85819e-07)
(0.0656544 -6.3073e-05 -8.85949e-07)
(0.0656642 -6.35637e-05 -8.86082e-07)
(0.0656741 -6.40621e-05 -8.86217e-07)
(0.0656842 -6.45684e-05 -8.86354e-07)
(0.0656945 -6.50828e-05 -8.86493e-07)
(0.0657049 -6.56054e-05 -8.86635e-07)
(0.0657155 -6.61364e-05 -8.86778e-07)
(0.0657887 -6.62049e-05 -2.04081e-09)
(0.065468 -5.68741e-05 -8.8361e-07)
(0.0654755 -5.72728e-05 -8.83714e-07)
(0.0654831 -5.76771e-05 -8.83819e-07)
(0.0654909 -5.80872e-05 -8.83925e-07)
(0.0654987 -5.85032e-05 -8.84033e-07)
(0.0655067 -5.89251e-05 -8.84143e-07)
(0.0655148 -5.93532e-05 -8.84254e-07)
(0.0655229 -5.97876e-05 -8.84366e-07)
(0.0655313 -6.02283e-05 -8.84481e-07)
(0.0655397 -6.06756e-05 -8.84597e-07)
(0.0655483 -6.11296e-05 -8.84715e-07)
(0.065557 -6.15905e-05 -8.84834e-07)
(0.0655658 -6.20583e-05 -8.84955e-07)
(0.0655748 -6.25333e-05 -8.85079e-07)
(0.0655838 -6.30157e-05 -8.85204e-07)
(0.0655931 -6.35055e-05 -8.85331e-07)
(0.0656025 -6.4003e-05 -8.8546e-07)
(0.065612 -6.45084e-05 -8.85591e-07)
(0.0656217 -6.50218e-05 -8.85724e-07)
(0.0656315 -6.55434e-05 -8.85859e-07)
(0.0656415 -6.60735e-05 -8.85997e-07)
(0.0657147 -6.61418e-05 -1.92636e-09)
(0.0654043 -5.68274e-05 -8.82938e-07)
(0.0654114 -5.72254e-05 -8.83037e-07)
(0.0654186 -5.76291e-05 -8.83137e-07)
(0.0654259 -5.80385e-05 -8.83238e-07)
(0.0654333 -5.84538e-05 -8.83341e-07)
(0.0654408 -5.8875e-05 -8.83446e-07)
(0.0654484 -5.93024e-05 -8.83552e-07)
(0.0654561 -5.9736e-05 -8.83659e-07)
(0.0654639 -6.0176e-05 -8.83769e-07)
(0.0654718 -6.06225e-05 -8.83879e-07)
(0.0654799 -6.10757e-05 -8.83992e-07)
(0.0654881 -6.15358e-05 -8.84106e-07)
(0.0654964 -6.20028e-05 -8.84222e-07)
(0.0655048 -6.24769e-05 -8.84339e-07)
(0.0655134 -6.29584e-05 -8.84459e-07)
(0.0655221 -6.34474e-05 -8.8458e-07)
(0.0655309 -6.3944e-05 -8.84703e-07)
(0.0655399 -6.44484e-05 -8.84828e-07)
(0.065549 -6.49608e-05 -8.84955e-07)
(0.0655582 -6.54815e-05 -8.85084e-07)
(0.0655676 -6.60106e-05 -8.85215e-07)
(0.0656407 -6.60787e-05 -1.81193e-09)
(0.0653408 -5.67804e-05 -8.82265e-07)
(0.0653474 -5.71778e-05 -8.82359e-07)
(0.0653542 -5.75808e-05 -8.82455e-07)
(0.065361 -5.79896e-05 -8.82552e-07)
(0.0653679 -5.84041e-05 -8.8265e-07)
(0.0653749 -5.88247e-05 -8.82749e-07)
(0.065382 -5.92513e-05 -8.8285e-07)
(0.0653893 -5.96842e-05 -8.82953e-07)
(0.0653966 -6.01234e-05 -8.83057e-07)
(0.065404 -6.05692e-05 -8.83162e-07)
(0.0654116 -6.10216e-05 -8.83269e-07)
(0.0654193 -6.14808e-05 -8.83378e-07)
(0.065427 -6.1947e-05 -8.83488e-07)
(0.0654349 -6.24203e-05 -8.836e-07)
(0.065443 -6.29009e-05 -8.83714e-07)
(0.0654511 -6.3389e-05 -8.83829e-07)
(0.0654594 -6.38847e-05 -8.83946e-07)
(0.0654678 -6.43882e-05 -8.84065e-07)
(0.0654763 -6.48997e-05 -8.84186e-07)
(0.065485 -6.54194e-05 -8.84309e-07)
(0.0654938 -6.59475e-05 -8.84434e-07)
(0.0655668 -6.60154e-05 -1.68839e-09)
(0.0652774 -5.67244e-05 -8.81569e-07)
(0.0652836 -5.71211e-05 -8.81658e-07)
(0.0652899 -5.75234e-05 -8.81749e-07)
(0.0652963 -5.79313e-05 -8.8184e-07)
(0.0653027 -5.83451e-05 -8.81933e-07)
(0.0653093 -5.87649e-05 -8.82028e-07)
(0.0653159 -5.91908e-05 -8.82123e-07)
(0.0653227 -5.96228e-05 -8.82221e-07)
(0.0653295 -6.00612e-05 -8.82319e-07)
(0.0653365 -6.05061e-05 -8.82419e-07)
(0.0653435 -6.09577e-05 -8.82521e-07)
(0.0653507 -6.1416e-05 -8.82624e-07)
(0.0653579 -6.18813e-05 -8.82728e-07)
(0.0653653 -6.23537e-05 -8.82834e-07)
(0.0653728 -6.28334e-05 -8.82942e-07)
(0.0653804 -6.33204e-05 -8.83052e-07)
(0.0653881 -6.38151e-05 -8.83163e-07)
(0.0653959 -6.43176e-05 -8.83276e-07)
(0.0654039 -6.48281e-05 -8.83391e-07)
(0.065412 -6.53467e-05 -8.83507e-07)
(0.0654202 -6.58737e-05 -8.83626e-07)
(0.0654931 -6.59408e-05 -8.36723e-10)
(0.0652141 -5.66683e-05 -8.80872e-07)
(0.0652199 -5.70643e-05 -8.80956e-07)
(0.0652257 -5.74658e-05 -8.81042e-07)
(0.0652316 -5.7873e-05 -8.81129e-07)
(0.0652376 -5.82861e-05 -8.81217e-07)
(0.0652437 -5.87051e-05 -8.81306e-07)
(0.0652499 -5.91301e-05 -8.81396e-07)
(0.0652561 -5.95614e-05 -8.81488e-07)
(0.0652625 -5.9999e-05 -8.81581e-07)
(0.0652689 -6.0443e-05 -8.81676e-07)
(0.0652755 -6.08937e-05 -8.81772e-07)
(0.0652821 -6.13512e-05 -8.81869e-07)
(0.0652889 -6.18155e-05 -8.81968e-07)
(0.0652957 -6.2287e-05 -8.82068e-07)
(0.0653027 -6.27657e-05 -8.8217e-07)
(0.0653097 -6.32518e-05 -8.82274e-07)
(0.0653169 -6.37456e-05 -8.82379e-07)
(0.0653242 -6.4247e-05 -8.82486e-07)
(0.0653315 -6.47565e-05 -8.82594e-07)
(0.0653391 -6.5274e-05 -8.82704e-07)
(0.0653467 -6.58e-05 -8.82816e-07)
(0.0654196 -6.5867e-05 -7.55728e-10)
(0.0651509 -5.66121e-05 -8.80176e-07)
(0.0651562 -5.70074e-05 -8.80255e-07)
(0.0651616 -5.74082e-05 -8.80336e-07)
(0.065167 -5.78147e-05 -8.80417e-07)
(0.0651726 -5.82269e-05 -8.805e-07)
(0.0651782 -5.86451e-05 -8.80584e-07)
(0.0651839 -5.90694e-05 -8.8067e-07)
(0.0651897 -5.94998e-05 -8.80756e-07)
(0.0651955 -5.99366e-05 -8.80844e-07)
(0.0652015 -6.03798e-05 -8.80933e-07)
(0.0652075 -6.08296e-05 -8.81023e-07)
(0.0652136 -6.12862e-05 -8.81115e-07)
(0.0652199 -6.17497e-05 -8.81208e-07)
(0.0652262 -6.22202e-05 -8.81303e-07)
(0.0652326 -6.2698e-05 -8.81399e-07)
(0.0652391 -6.31831e-05 -8.81496e-07)
(0.0652457 -6.36759e-05 -8.81595e-07)
(0.0652524 -6.41763e-05 -8.81696e-07)
(0.0652593 -6.46847e-05 -8.81798e-07)
(0.0652662 -6.52012e-05 -8.81902e-07)
(0.0652733 -6.57261e-05 -8.82007e-07)
(0.065346 -6.5793e-05 -6.92688e-10)
(0.0650877 -5.65558e-05 -8.7948e-07)
(0.0650926 -5.69504e-05 -8.79554e-07)
(0.0650975 -5.73504e-05 -8.7963e-07)
(0.0651025 -5.77562e-05 -8.79707e-07)
(0.0651076 -5.81677e-05 -8.79784e-07)
(0.0651127 -5.85851e-05 -8.79863e-07)
(0.0651179 -5.90086e-05 -8.79943e-07)
(0.0651232 -5.94382e-05 -8.80025e-07)
(0.0651286 -5.98741e-05 -8.80107e-07)
(0.0651341 -6.03165e-05 -8.80191e-07)
(0.0651396 -6.07654e-05 -8.80275e-07)
(0.0651452 -6.12211e-05 -8.80362e-07)
(0.0651509 -6.16837e-05 -8.80449e-07)
(0.0651567 -6.21533e-05 -8.80538e-07)
(0.0651626 -6.26301e-05 -8.80628e-07)
(0.0651686 -6.31143e-05 -8.8072e-07)
(0.0651747 -6.3606e-05 -8.80812e-07)
(0.0651808 -6.41055e-05 -8.80907e-07)
(0.0651871 -6.46129e-05 -8.81003e-07)
(0.0651934 -6.51283e-05 -8.811e-07)
(0.0651999 -6.56521e-05 -8.81199e-07)
(0.0652726 -6.5719e-05 -6.29781e-10)
(0.0650245 -5.64994e-05 -8.78784e-07)
(0.065029 -5.68933e-05 -8.78854e-07)
(0.0650335 -5.72926e-05 -8.78924e-07)
(0.065038 -5.76976e-05 -8.78996e-07)
(0.0650426 -5.81083e-05 -8.79069e-07)
(0.0650473 -5.8525e-05 -8.79143e-07)
(0.0650521 -5.89476e-05 -8.79218e-07)
(0.0650569 -5.93764e-05 -8.79293e-07)
(0.0650618 -5.98115e-05 -8.79371e-07)
(0.0650667 -6.02531e-05 -8.79449e-07)
(0.0650718 -6.07011e-05 -8.79528e-07)
(0.0650769 -6.11559e-05 -8.79609e-07)
(0.0650821 -6.16176e-05 -8.7969e-07)
(0.0650873 -6.20863e-05 -8.79773e-07)
(0.0650927 -6.25622e-05 -8.79858e-07)
(0.0650981 -6.30454e-05 -8.79943e-07)
(0.0651036 -6.35361e-05 -8.8003e-07)
(0.0651092 -6.40346e-05 -8.80118e-07)
(0.0651149 -6.45409e-05 -8.80208e-07)
(0.0651207 -6.50553e-05 -8.80299e-07)
(0.0651266 -6.5578e-05 -8.80392e-07)
(0.0651992 -6.56449e-05 -5.67031e-10)
(0.0649615 -5.6443e-05 -8.78089e-07)
(0.0649654 -5.68361e-05 -8.78154e-07)
(0.0649695 -5.72347e-05 -8.7822e-07)
(0.0649736 -5.76389e-05 -8.78286e-07)
(0.0649777 -5.80489e-05 -8.78354e-07)
(0.064982 -5.84648e-05 -8.78423e-07)
(0.0649862 -5.88866e-05 -8.78492e-07)
(0.0649906 -5.93146e-05 -8.78563e-07)
(0.064995 -5.97489e-05 -8.78635e-07)
(0.0649995 -6.01895e-05 -8.78707e-07)
(0.065004 -6.06368e-05 -8.78781e-07)
(0.0650086 -6.10907e-05 -8.78856e-07)
(0.0650133 -6.15514e-05 -8.78932e-07)
(0.065018 -6.20192e-05 -8.79009e-07)
(0.0650228 -6.24941e-05 -8.79088e-07)
(0.0650277 -6.29764e-05 -8.79167e-07)
(0.0650327 -6.34661e-05 -8.79248e-07)
(0.0650378 -6.39635e-05 -8.7933e-07)
(0.0650429 -6.44688e-05 -8.79414e-07)
(0.0650481 -6.49822e-05 -8.79499e-07)
(0.0650534 -6.55038e-05 -8.79585e-07)
(0.0651259 -6.55706e-05 -5.04438e-10)
(0.0648984 -5.63864e-05 -8.77394e-07)
(0.064902 -5.67788e-05 -8.77454e-07)
(0.0649056 -5.71767e-05 -8.77515e-07)
(0.0649092 -5.75801e-05 -8.77577e-07)
(0.0649129 -5.79894e-05 -8.77639e-07)
(0.0649167 -5.84044e-05 -8.77703e-07)
(0.0649205 -5.88255e-05 -8.77767e-07)
(0.0649244 -5.92527e-05 -8.77833e-07)
(0.0649283 -5.96861e-05 -8.77899e-07)
(0.0649323 -6.01259e-05 -8.77966e-07)
(0.0649363 -6.05723e-05 -8.78035e-07)
(0.0649404 -6.10253e-05 -8.78104e-07)
(0.0649445 -6.14851e-05 -8.78175e-07)
(0.0649488 -6.1952e-05 -8.78246e-07)
(0.0649531 -6.24259e-05 -8.78319e-07)
(0.0649574 -6.29072e-05 -8.78392e-07)
(0.0649618 -6.3396e-05 -8.78467e-07)
(0.0649663 -6.38924e-05 -8.78543e-07)
(0.0649709 -6.43967e-05 -8.7862e-07)
(0.0649755 -6.49089e-05 -8.78699e-07)
(0.0649802 -6.54294e-05 -8.78778e-07)
(0.0650527 -6.54962e-05 -4.42002e-10)
(0.0648355 -5.63298e-05 -8.767e-07)
(0.0648386 -5.67214e-05 -8.76755e-07)
(0.0648417 -5.71186e-05 -8.76811e-07)
(0.0648449 -5.75213e-05 -8.76868e-07)
(0.0648482 -5.79297e-05 -8.76925e-07)
(0.0648515 -5.8344e-05 -8.76984e-07)
(0.0648548 -5.87643e-05 -8.77043e-07)
(0.0648582 -5.91907e-05 -8.77103e-07)
(0.0648616 -5.96232e-05 -8.77164e-07)
(0.0648651 -6.00622e-05 -8.77226e-07)
(0.0648686 -6.05077e-05 -8.77289e-07)
(0.0648722 -6.09598e-05 -8.77353e-07)
(0.0648759 -6.14188e-05 -8.77417e-07)
(0.0648796 -6.18847e-05 -8.77483e-07)
(0.0648833 -6.23577e-05 -8.7755e-07)
(0.0648872 -6.2838e-05 -8.77618e-07)
(0.064891 -6.33258e-05 -8.77686e-07)
(0.064895 -6.38212e-05 -8.77756e-07)
(0.064899 -6.43244e-05 -8.77827e-07)
(0.064903 -6.48356e-05 -8.77899e-07)
(0.0649072 -6.5355e-05 -8.77973e-07)
(0.0649796 -6.54218e-05 -3.79723e-10)
(0.0647725 -5.62731e-05 -8.76006e-07)
(0.0647752 -5.6664e-05 -8.76056e-07)
(0.0647779 -5.70604e-05 -8.76108e-07)
(0.0647807 -5.74623e-05 -8.76159e-07)
(0.0647835 -5.787e-05 -8.76212e-07)
(0.0647863 -5.82835e-05 -8.76265e-07)
(0.0647892 -5.8703e-05 -8.76319e-07)
(0.0647921 -5.91285e-05 -8.76374e-07)
(0.064795 -5.95603e-05 -8.7643e-07)
(0.064798 -5.99984e-05 -8.76486e-07)
(0.0648011 -6.0443e-05 -8.76544e-07)
(0.0648041 -6.08942e-05 -8.76602e-07)
(0.0648073 -6.13523e-05 -8.76661e-07)
(0.0648105 -6.18172e-05 -8.76721e-07)
(0.0648137 -6.22893e-05 -8.76782e-07)
(0.064817 -6.27687e-05 -8.76843e-07)
(0.0648203 -6.32554e-05 -8.76906e-07)
(0.0648237 -6.37498e-05 -8.7697e-07)
(0.0648271 -6.4252e-05 -8.77035e-07)
(0.0648306 -6.47621e-05 -8.77101e-07)
(0.0648342 -6.52804e-05 -8.77168e-07)
(0.0649065 -6.53472e-05 -3.17602e-10)
(0.0647097 -5.62162e-05 -8.75313e-07)
(0.0647119 -5.66064e-05 -8.75358e-07)
(0.0647142 -5.70021e-05 -8.75404e-07)
(0.0647165 -5.74033e-05 -8.75451e-07)
(0.0647188 -5.78102e-05 -8.75499e-07)
(0.0647212 -5.8223e-05 -8.75547e-07)
(0.0647236 -5.86416e-05 -8.75596e-07)
(0.064726 -5.90663e-05 -8.75645e-07)
(0.0647285 -5.94973e-05 -8.75696e-07)
(0.064731 -5.99345e-05 -8.75747e-07)
(0.0647335 -6.03782e-05 -8.75799e-07)
(0.0647361 -6.08286e-05 -8.75851e-07)
(0.0647387 -6.12857e-05 -8.75905e-07)
(0.0647414 -6.17497e-05 -8.75959e-07)
(0.0647441 -6.22209e-05 -8.76014e-07)
(0.0647469 -6.26992e-05 -8.7607e-07)
(0.0647496 -6.3185e-05 -8.76127e-07)
(0.0647525 -6.36784e-05 -8.76184e-07)
(0.0647554 -6.41795e-05 -8.76243e-07)
(0.0647583 -6.46886e-05 -8.76302e-07)
(0.0647613 -6.52058e-05 -8.76363e-07)
(0.0648335 -6.52725e-05 -2.55639e-10)
(0.0646469 -5.61594e-05 -8.7462e-07)
(0.0646487 -5.65488e-05 -8.7466e-07)
(0.0646505 -5.69437e-05 -8.74702e-07)
(0.0646523 -5.73442e-05 -8.74744e-07)
(0.0646542 -5.77503e-05 -8.74786e-07)
(0.0646561 -5.81623e-05 -8.74829e-07)
(0.0646581 -5.85801e-05 -8.74873e-07)
(0.06466 -5.9004e-05 -8.74917e-07)
(0.064662 -5.94341e-05 -8.74962e-07)
(0.064664 -5.98705e-05 -8.75008e-07)
(0.0646661 -6.03134e-05 -8.75054e-07)
(0.0646682 -6.07628e-05 -8.75101e-07)
(0.0646703 -6.1219e-05 -8.75149e-07)
(0.0646724 -6.16821e-05 -8.75198e-07)
(0.0646746 -6.21523e-05 -8.75247e-07)
(0.0646768 -6.26297e-05 -8.75297e-07)
(0.0646791 -6.31145e-05 -8.75348e-07)
(0.0646813 -6.36068e-05 -8.75399e-07)
(0.0646837 -6.41069e-05 -8.75452e-07)
(0.064686 -6.46149e-05 -8.75505e-07)
(0.0646884 -6.5131e-05 -8.75559e-07)
(0.0647606 -6.51977e-05 -1.93834e-10)
(0.0645841 -5.61024e-05 -8.73927e-07)
(0.0645855 -5.64911e-05 -8.73963e-07)
(0.0645869 -5.68853e-05 -8.74e-07)
(0.0645883 -5.7285e-05 -8.74036e-07)
(0.0645897 -5.76904e-05 -8.74074e-07)
(0.0645911 -5.81015e-05 -8.74112e-07)
(0.0645926 -5.85186e-05 -8.74151e-07)
(0.0645941 -5.89417e-05 -8.7419e-07)
(0.0645956 -5.93709e-05 -8.74229e-07)
(0.0645971 -5.98064e-05 -8.7427e-07)
(0.0645987 -6.02484e-05 -8.74311e-07)
(0.0646003 -6.0697e-05 -8.74352e-07)
(0.0646019 -6.11523e-05 -8.74394e-07)
(0.0646035 -6.16144e-05 -8.74437e-07)
(0.0646052 -6.20837e-05 -8.7448e-07)
(0.0646068 -6.25601e-05 -8.74524e-07)
(0.0646085 -6.30438e-05 -8.74569e-07)
(0.0646103 -6.35352e-05 -8.74615e-07)
(0.064612 -6.40342e-05 -8.74661e-07)
(0.0646138 -6.45412e-05 -8.74708e-07)
(0.0646156 -6.50562e-05 -8.74756e-07)
(0.0646877 -6.51228e-05 -1.32187e-10)
(0.0645214 -5.60453e-05 -8.73235e-07)
(0.0645223 -5.64333e-05 -8.73266e-07)
(0.0645233 -5.68268e-05 -8.73298e-07)
(0.0645242 -5.72257e-05 -8.7333e-07)
(0.0645252 -5.76303e-05 -8.73362e-07)
(0.0645262 -5.80407e-05 -8.73395e-07)
(0.0645272 -5.84569e-05 -8.73429e-07)
(0.0645282 -5.88792e-05 -8.73462e-07)
(0.0645292 -5.93076e-05 -8.73497e-07)
(0.0645303 -5.97423e-05 -8.73532e-07)
(0.0645314 -6.01834e-05 -8.73567e-07)
(0.0645324 -6.0631e-05 -8.73603e-07)
(0.0645335 -6.10854e-05 -8.7364e-07)
(0.0645346 -6.15466e-05 -8.73677e-07)
(0.0645358 -6.20149e-05 -8.73714e-07)
(0.0645369 -6.24903e-05 -8.73753e-07)
(0.0645381 -6.29731e-05 -8.73791e-07)
(0.0645393 -6.34634e-05 -8.73831e-07)
(0.0645405 -6.39614e-05 -8.73871e-07)
(0.0645417 -6.44673e-05 -8.73911e-07)
(0.0645429 -6.49812e-05 -8.73953e-07)
(0.064615 -6.50478e-05 -7.07221e-11)
(0.0644588 -5.5989e-05 -8.72544e-07)
(0.0644593 -5.63763e-05 -8.7257e-07)
(0.0644598 -5.6769e-05 -8.72597e-07)
(0.0644603 -5.71672e-05 -8.72624e-07)
(0.0644608 -5.7571e-05 -8.72651e-07)
(0.0644613 -5.79806e-05 -8.72679e-07)
(0.0644619 -5.8396e-05 -8.72708e-07)
(0.0644624 -5.88175e-05 -8.72736e-07)
(0.064463 -5.92451e-05 -8.72765e-07)
(0.0644635 -5.96789e-05 -8.72795e-07)
(0.0644641 -6.01191e-05 -8.72825e-07)
(0.0644647 -6.05659e-05 -8.72855e-07)
(0.0644653 -6.10194e-05 -8.72886e-07)
(0.0644659 -6.14797e-05 -8.72917e-07)
(0.0644665 -6.1947e-05 -8.72949e-07)
(0.0644671 -6.24215e-05 -8.72982e-07)
(0.0644677 -6.29033e-05 -8.73014e-07)
(0.0644683 -6.33926e-05 -8.73048e-07)
(0.064469 -6.38895e-05 -8.73082e-07)
(0.0644697 -6.43944e-05 -8.73116e-07)
(0.0644703 -6.49072e-05 -8.73151e-07)
(0.0645423 -6.49737e-05 1.21053e-11)
(0.0643937 -5.57814e-05 -8.72243e-07)
(0.0643937 -5.61669e-05 -8.72267e-07)
(0.0643938 -5.65579e-05 -8.72292e-07)
(0.0643938 -5.69542e-05 -8.72317e-07)
(0.0643939 -5.73562e-05 -8.72342e-07)
(0.0643939 -5.77639e-05 -8.72368e-07)
(0.064394 -5.81775e-05 -8.72394e-07)
(0.064394 -5.8597e-05 -8.7242e-07)
(0.0643941 -5.90225e-05 -8.72447e-07)
(0.0643941 -5.94544e-05 -8.72474e-07)
(0.0643942 -5.98926e-05 -8.72502e-07)
(0.0643943 -6.03372e-05 -8.7253e-07)
(0.0643943 -6.07886e-05 -8.72558e-07)
(0.0643944 -6.12467e-05 -8.72587e-07)
(0.0643944 -6.17119e-05 -8.72617e-07)
(0.0643945 -6.21841e-05 -8.72646e-07)
(0.0643946 -6.26636e-05 -8.72677e-07)
(0.0643946 -6.31506e-05 -8.72707e-07)
(0.0643947 -6.36451e-05 -8.72739e-07)
(0.0643948 -6.41475e-05 -8.7277e-07)
(0.0643949 -6.46579e-05 -8.72803e-07)
(0.0644669 -6.47377e-05 -1.13766e-08)
)
;

boundaryField
{
    inlet
    {
        type            calculated;
        value           uniform (0 0 0);
    }
    outlet2
    {
        type            calculated;
        value           uniform (0 0 0);
    }
    outlet1
    {
        type            calculated;
        value           uniform (0 0 0);
    }
    wall
    {
        type            calculated;
        value           uniform (0 0 0);
    }
    symmetryBottom
    {
        type            symmetry;
    }
    symmetryZ0
    {
        type            symmetry;
    }
    symmetryZ05
    {
        type            symmetry;
    }
}


// ************************************************************************* //
