/*--------------------------------*- C++ -*----------------------------------*\
| =========                 |                                                 |
| \\      /  F ield         | OpenFOAM: The Open Source CFD Toolbox           |
|  \\    /   O peration     | Version:  2412                                  |
|   \\  /    A nd           | Website:  www.openfoam.com                      |
|    \\/     M anipulation  |                                                 |
\*---------------------------------------------------------------------------*/
FoamFile
{
    version     2.0;
    format      ascii;
    arch        "LSB;label=32;scalar=64";
    class       volVectorField;
    location    "1.07831e-06";
    object      rhoU_dof1;
}
// * * * * * * * * * * * * * * * * * * * * * * * * * * * * * * * * * * * * * //

dimensions      [0 0 0 0 0 0 0];

internalField   nonuniform List<vector> 
625
(
(0.0339995 4.26377e-07 3.24862e-06)
(-1.95525e-09 -1.35906e-13 2.69276e-06)
(-1.85224e-05 0.000159767 3.11761e-06)
(0.034 -1.92303e-05 3.24877e-06)
(-1.95522e-09 2.15564e-12 2.69292e-06)
(-2.39109e-06 -9.01152e-08 3.08637e-06)
(0.0340001 -1.92375e-05 3.24869e-06)
(-1.95526e-09 2.15166e-12 2.69283e-06)
(-7.81174e-06 4.5731e-07 3.08672e-06)
(0.0340001 -1.92376e-05 3.24869e-06)
(-1.95526e-09 2.15165e-12 2.69284e-06)
(-7.78964e-06 4.55087e-07 3.08672e-06)
(0.0340001 -1.92376e-05 3.24869e-06)
(-1.95526e-09 2.15165e-12 2.69284e-06)
(-7.7897e-06 4.55093e-07 3.08672e-06)
(0.0340001 -1.92376e-05 3.24869e-06)
(-1.95526e-09 2.15165e-12 2.69284e-06)
(-7.7897e-06 4.55093e-07 3.08672e-06)
(0.0340001 -1.92376e-05 3.24869e-06)
(-1.95526e-09 2.15165e-12 2.69284e-06)
(-7.7897e-06 4.55093e-07 3.08672e-06)
(0.0340001 -1.92376e-05 3.24869e-06)
(-1.95526e-09 2.15165e-12 2.69284e-06)
(-7.7897e-06 4.55093e-07 3.08672e-06)
(0.0340001 -1.92376e-05 3.24869e-06)
(-1.95526e-09 2.15165e-12 2.69284e-06)
(-7.7897e-06 4.55093e-07 3.08672e-06)
(0.0340001 -1.92376e-05 3.24869e-06)
(-1.95526e-09 2.15165e-12 2.69284e-06)
(-7.7897e-06 4.55093e-07 3.08672e-06)
(0.0340001 -1.92376e-05 3.24869e-06)
(-1.95526e-09 2.15165e-12 2.69284e-06)
(-7.7897e-06 4.55093e-07 3.08672e-06)
(0.0340001 -1.92376e-05 3.24869e-06)
(-1.95526e-09 2.15165e-12 2.69284e-06)
(-7.7897e-06 4.55093e-07 3.08672e-06)
(0.0340001 -1.92376e-05 3.24869e-06)
(-1.95526e-09 2.15165e-12 2.69284e-06)
(-7.7897e-06 4.55093e-07 3.08672e-06)
(0.0340001 -1.92376e-05 3.24869e-06)
(-1.95526e-09 2.15165e-12 2.69284e-06)
(-7.7897e-06 4.55093e-07 3.08672e-06)
(0.0340001 -1.92376e-05 3.24869e-06)
(-1.95526e-09 2.15165e-12 2.69284e-06)
(-7.7897e-06 4.55093e-07 3.08672e-06)
(0.0340001 -1.92376e-05 3.24869e-06)
(-1.95526e-09 2.15165e-12 2.69284e-06)
(-7.7897e-06 4.55093e-07 3.08672e-06)
(0.0340001 -1.92376e-05 3.24869e-06)
(-1.95526e-09 2.15165e-12 2.69284e-06)
(-7.7897e-06 4.55093e-07 3.08672e-06)
(0.0340001 -1.92376e-05 3.24869e-06)
(-1.95526e-09 2.15165e-12 2.69284e-06)
(-7.7897e-06 4.55093e-07 3.08672e-06)
(0.0340001 -1.92376e-05 3.24869e-06)
(-1.95526e-09 2.15165e-12 2.69284e-06)
(-7.7897e-06 4.55093e-07 3.08672e-06)
(0.0340001 -1.92376e-05 3.24869e-06)
(-1.95526e-09 2.15165e-12 2.69284e-06)
(-7.7897e-06 4.55093e-07 3.08672e-06)
(0.0340001 -1.92376e-05 3.24869e-06)
(-1.95526e-09 2.15165e-12 2.69284e-06)
(-7.7897e-06 4.55093e-07 3.08672e-06)
(0.0340001 -1.92376e-05 3.24869e-06)
(-1.95526e-09 2.15165e-12 2.69284e-06)
(-7.7897e-06 4.55093e-07 3.08672e-06)
(0.0340001 -1.92376e-05 3.24869e-06)
(-1.95526e-09 2.15165e-12 2.69284e-06)
(-7.78924e-06 4.55048e-07 3.08671e-06)
(0.0340001 -1.92388e-05 3.24869e-06)
(-1.95526e-09 2.15199e-12 2.69284e-06)
(-7.96045e-06 4.71518e-07 3.1023e-06)
(0.0340079 -1.97101e-05 3.2494e-06)
(-1.95613e-09 2.3009e-12 2.69332e-06)
(-7.44547e-07 4.48054e-08 2.68903e-06)
(-8.1868e-05 -5.88049e-09 3.13118e-06)
(-8.24309e-05 -5.99366e-09 3.13344e-06)
(-8.30016e-05 -6.10994e-09 3.13574e-06)
(-8.35802e-05 -6.22943e-09 3.13807e-06)
(-8.4167e-05 -6.35225e-09 3.14044e-06)
(-8.4762e-05 -6.47852e-09 3.14285e-06)
(-8.53656e-05 -6.60836e-09 3.14531e-06)
(-8.59777e-05 -6.74191e-09 3.1478e-06)
(-8.65988e-05 -6.8793e-09 3.15034e-06)
(-8.72288e-05 -7.02067e-09 3.15292e-06)
(-8.78681e-05 -7.1662e-09 3.15554e-06)
(-8.85169e-05 -7.316e-09 3.15821e-06)
(-8.91752e-05 -7.47023e-09 3.16093e-06)
(-8.98435e-05 -7.62913e-09 3.1637e-06)
(-9.05218e-05 -7.7928e-09 3.16652e-06)
(-9.12105e-05 -7.96149e-09 3.16939e-06)
(-9.19097e-05 -8.13534e-09 3.17231e-06)
(-9.26197e-05 -8.31462e-09 3.17529e-06)
(-9.33408e-05 -8.49948e-09 3.17832e-06)
(-9.40732e-05 -8.69022e-09 3.18141e-06)
(-9.48171e-05 -8.88698e-09 3.18456e-06)
(-0.00586751 0.000230762 3.45324e-06)
(-8.39528e-05 6.51415e-08 2.91793e-06)
(-8.45447e-05 6.6051e-08 2.91836e-06)
(-8.51451e-05 6.69796e-08 2.91881e-06)
(-8.5754e-05 6.79279e-08 2.91926e-06)
(-8.63717e-05 6.88965e-08 2.91972e-06)
(-8.69984e-05 6.9886e-08 2.92018e-06)
(-8.76342e-05 7.08969e-08 2.92065e-06)
(-8.82794e-05 7.193e-08 2.92113e-06)
(-8.89341e-05 7.29857e-08 2.92161e-06)
(-8.95987e-05 7.40649e-08 2.9221e-06)
(-9.02732e-05 7.51682e-08 2.9226e-06)
(-9.0958e-05 7.62963e-08 2.92311e-06)
(-9.16533e-05 7.745e-08 2.92362e-06)
(-9.23591e-05 7.863e-08 2.92414e-06)
(-9.30761e-05 7.98372e-08 2.92467e-06)
(-9.38042e-05 8.10724e-08 2.92521e-06)
(-9.45438e-05 8.23365e-08 2.92575e-06)
(-9.52951e-05 8.36303e-08 2.92631e-06)
(-9.60585e-05 8.49549e-08 2.92687e-06)
(-9.68342e-05 8.63113e-08 2.92744e-06)
(-9.76226e-05 8.77003e-08 2.92802e-06)
(0.000188172 1.72384e-05 3.15589e-06)
(-8.3878e-05 6.53131e-08 2.91603e-06)
(-8.44689e-05 6.62266e-08 2.91646e-06)
(-8.50682e-05 6.71595e-08 2.9169e-06)
(-8.5676e-05 6.81121e-08 2.91734e-06)
(-8.62926e-05 6.90852e-08 2.91779e-06)
(-8.69181e-05 7.00793e-08 2.91825e-06)
(-8.75528e-05 7.1095e-08 2.91871e-06)
(-8.81968e-05 7.2133e-08 2.91918e-06)
(-8.88503e-05 7.31939e-08 2.91965e-06)
(-8.95135e-05 7.42783e-08 2.92014e-06)
(-9.01868e-05 7.5387e-08 2.92063e-06)
(-9.08703e-05 7.65208e-08 2.92112e-06)
(-9.15642e-05 7.76803e-08 2.92163e-06)
(-9.22688e-05 7.88663e-08 2.92214e-06)
(-9.29843e-05 8.00798e-08 2.92266e-06)
(-9.3711e-05 8.13214e-08 2.92319e-06)
(-9.44491e-05 8.25922e-08 2.92373e-06)
(-9.5199e-05 8.3893e-08 2.92427e-06)
(-9.59608e-05 8.52248e-08 2.92483e-06)
(-9.67349e-05 8.65885e-08 2.92539e-06)
(-9.75216e-05 8.79852e-08 2.92596e-06)
(9.06367e-05 3.61998e-07 3.16477e-06)
(-8.38042e-05 6.52525e-08 2.91348e-06)
(-8.43941e-05 6.61646e-08 2.91389e-06)
(-8.49923e-05 6.7096e-08 2.91431e-06)
(-8.55991e-05 6.80473e-08 2.91473e-06)
(-8.62146e-05 6.90189e-08 2.91516e-06)
(-8.68389e-05 7.00114e-08 2.9156e-06)
(-8.74725e-05 7.10255e-08 2.91604e-06)
(-8.81153e-05 7.20618e-08 2.91649e-06)
(-8.87676e-05 7.3121e-08 2.91695e-06)
(-8.94296e-05 7.42037e-08 2.91741e-06)
(-9.01017e-05 7.53106e-08 2.91788e-06)
(-9.07839e-05 7.64425e-08 2.91836e-06)
(-9.14764e-05 7.76e-08 2.91884e-06)
(-9.21797e-05 7.87841e-08 2.91933e-06)
(-9.28938e-05 7.99955e-08 2.91983e-06)
(-9.36191e-05 8.1235e-08 2.92034e-06)
(-9.43558e-05 8.25035e-08 2.92085e-06)
(-9.51042e-05 8.38021e-08 2.92137e-06)
(-9.58645e-05 8.51315e-08 2.9219e-06)
(-9.66371e-05 8.64928e-08 2.92244e-06)
(-9.74222e-05 8.7887e-08 2.92299e-06)
(9.13227e-05 6.17594e-07 3.16755e-06)
(-8.37305e-05 6.52045e-08 2.91094e-06)
(-8.43194e-05 6.61156e-08 2.91133e-06)
(-8.49165e-05 6.7046e-08 2.91173e-06)
(-8.55222e-05 6.79962e-08 2.91214e-06)
(-8.61365e-05 6.89667e-08 2.91255e-06)
(-8.67599e-05 6.99581e-08 2.91297e-06)
(-8.73922e-05 7.09711e-08 2.91339e-06)
(-8.80338e-05 7.20062e-08 2.91382e-06)
(-8.8685e-05 7.30641e-08 2.91426e-06)
(-8.93459e-05 7.41456e-08 2.9147e-06)
(-9.00165e-05 7.52511e-08 2.91515e-06)
(-9.06975e-05 7.63817e-08 2.9156e-06)
(-9.13888e-05 7.75379e-08 2.91607e-06)
(-9.20906e-05 7.87205e-08 2.91654e-06)
(-9.28034e-05 7.99304e-08 2.91701e-06)
(-9.35273e-05 8.11684e-08 2.9175e-06)
(-9.42626e-05 8.24355e-08 2.91799e-06)
(-9.50095e-05 8.37323e-08 2.91849e-06)
(-9.57683e-05 8.50601e-08 2.919e-06)
(-9.65394e-05 8.64197e-08 2.91951e-06)
(-9.7323e-05 8.78121e-08 2.92004e-06)
(9.20254e-05 6.32037e-07 3.17035e-06)
(-8.36568e-05 6.51565e-08 2.9084e-06)
(-8.42446e-05 6.60667e-08 2.90878e-06)
(-8.48408e-05 6.6996e-08 2.90916e-06)
(-8.54453e-05 6.79451e-08 2.90954e-06)
(-8.60586e-05 6.89145e-08 2.90994e-06)
(-8.66808e-05 6.99048e-08 2.91034e-06)
(-8.7312e-05 7.09166e-08 2.91074e-06)
(-8.79525e-05 7.19505e-08 2.91115e-06)
(-8.86025e-05 7.30073e-08 2.91157e-06)
(-8.9262e-05 7.40874e-08 2.91199e-06)
(-8.99315e-05 7.51917e-08 2.91242e-06)
(-9.06112e-05 7.63209e-08 2.91285e-06)
(-9.13011e-05 7.74757e-08 2.9133e-06)
(-9.20018e-05 7.86569e-08 2.91374e-06)
(-9.27131e-05 7.98654e-08 2.9142e-06)
(-9.34356e-05 8.11019e-08 2.91466e-06)
(-9.41694e-05 8.23673e-08 2.91513e-06)
(-9.49149e-05 8.36626e-08 2.91561e-06)
(-9.56722e-05 8.49887e-08 2.91609e-06)
(-9.64418e-05 8.63466e-08 2.91659e-06)
(-9.72237e-05 8.77373e-08 2.91709e-06)
(9.27396e-05 6.48414e-07 3.17316e-06)
(-8.35832e-05 6.51086e-08 2.90586e-06)
(-8.417e-05 6.60177e-08 2.90622e-06)
(-8.4765e-05 6.6946e-08 2.90658e-06)
(-8.53686e-05 6.7894e-08 2.90695e-06)
(-8.59808e-05 6.88624e-08 2.90733e-06)
(-8.66018e-05 6.98515e-08 2.90771e-06)
(-8.72319e-05 7.08622e-08 2.90809e-06)
(-8.78712e-05 7.18949e-08 2.90848e-06)
(-8.85199e-05 7.29504e-08 2.90888e-06)
(-8.91783e-05 7.40293e-08 2.90928e-06)
(-8.98466e-05 7.51323e-08 2.90969e-06)
(-9.05249e-05 7.62602e-08 2.91011e-06)
(-9.12136e-05 7.74136e-08 2.91053e-06)
(-9.19128e-05 7.85934e-08 2.91096e-06)
(-9.26229e-05 7.98004e-08 2.91139e-06)
(-9.3344e-05 8.10354e-08 2.91183e-06)
(-9.40763e-05 8.22992e-08 2.91228e-06)
(-9.48203e-05 8.35929e-08 2.91273e-06)
(-9.55762e-05 8.49174e-08 2.91319e-06)
(-9.63441e-05 8.62735e-08 2.91366e-06)
(-9.71246e-05 8.76624e-08 2.91414e-06)
(9.34724e-05 6.64823e-07 3.17598e-06)
(-8.35096e-05 6.50606e-08 2.90333e-06)
(-8.40953e-05 6.59688e-08 2.90367e-06)
(-8.46894e-05 6.6896e-08 2.90401e-06)
(-8.52919e-05 6.7843e-08 2.90437e-06)
(-8.59029e-05 6.88102e-08 2.90472e-06)
(-8.65229e-05 6.97983e-08 2.90508e-06)
(-8.71518e-05 7.08078e-08 2.90545e-06)
(-8.77899e-05 7.18393e-08 2.90582e-06)
(-8.84375e-05 7.28936e-08 2.9062e-06)
(-8.90946e-05 7.39712e-08 2.90658e-06)
(-8.97617e-05 7.50729e-08 2.90697e-06)
(-9.04388e-05 7.61994e-08 2.90736e-06)
(-9.11261e-05 7.73515e-08 2.90776e-06)
(-9.1824e-05 7.85299e-08 2.90817e-06)
(-9.25327e-05 7.97354e-08 2.90858e-06)
(-9.32524e-05 8.09689e-08 2.909e-06)
(-9.39834e-05 8.22312e-08 2.90943e-06)
(-9.47259e-05 8.35233e-08 2.90986e-06)
(-9.54802e-05 8.48461e-08 2.9103e-06)
(-9.62467e-05 8.62005e-08 2.91074e-06)
(-9.70255e-05 8.75877e-08 2.91119e-06)
(9.42237e-05 6.81275e-07 3.1788e-06)
(-8.34361e-05 6.50127e-08 2.90079e-06)
(-8.40209e-05 6.59199e-08 2.90112e-06)
(-8.46138e-05 6.68461e-08 2.90145e-06)
(-8.52152e-05 6.7792e-08 2.90178e-06)
(-8.58252e-05 6.87582e-08 2.90212e-06)
(-8.6444e-05 6.97451e-08 2.90246e-06)
(-8.70718e-05 7.07534e-08 2.90281e-06)
(-8.77087e-05 7.17838e-08 2.90316e-06)
(-8.83551e-05 7.28368e-08 2.90351e-06)
(-8.90111e-05 7.39132e-08 2.90388e-06)
(-8.96768e-05 7.50136e-08 2.90425e-06)
(-9.03526e-05 7.61388e-08 2.90462e-06)
(-9.10388e-05 7.72895e-08 2.905e-06)
(-9.17353e-05 7.84664e-08 2.90538e-06)
(-9.24426e-05 7.96705e-08 2.90577e-06)
(-9.31609e-05 8.09025e-08 2.90617e-06)
(-9.38904e-05 8.21632e-08 2.90657e-06)
(-9.46316e-05 8.34537e-08 2.90698e-06)
(-9.53843e-05 8.47748e-08 2.9074e-06)
(-9.61493e-05 8.61276e-08 2.90782e-06)
(-9.69266e-05 8.7513e-08 2.90825e-06)
(9.49938e-05 6.97769e-07 3.18163e-06)
(-8.33626e-05 6.49668e-08 2.89826e-06)
(-8.39463e-05 6.58729e-08 2.89857e-06)
(-8.45382e-05 6.67982e-08 2.89888e-06)
(-8.51386e-05 6.7743e-08 2.89919e-06)
(-8.57474e-05 6.87081e-08 2.89951e-06)
(-8.63652e-05 6.96939e-08 2.89983e-06)
(-8.69918e-05 7.07011e-08 2.90016e-06)
(-8.76276e-05 7.17303e-08 2.9005e-06)
(-8.82728e-05 7.27821e-08 2.90083e-06)
(-8.89275e-05 7.38572e-08 2.90118e-06)
(-8.95921e-05 7.49563e-08 2.90152e-06)
(-9.02666e-05 7.60802e-08 2.90188e-06)
(-9.09513e-05 7.72295e-08 2.90224e-06)
(-9.16466e-05 7.84051e-08 2.9026e-06)
(-9.23525e-05 7.96077e-08 2.90297e-06)
(-9.30694e-05 8.08382e-08 2.90334e-06)
(-9.37976e-05 8.20974e-08 2.90373e-06)
(-9.45371e-05 8.33863e-08 2.90411e-06)
(-9.52885e-05 8.47058e-08 2.90451e-06)
(-9.60519e-05 8.60569e-08 2.90491e-06)
(-9.68276e-05 8.74405e-08 2.90531e-06)
(9.57704e-05 7.13466e-07 3.18443e-06)
(-8.32881e-05 6.49826e-08 2.8957e-06)
(-8.38708e-05 6.58886e-08 2.89598e-06)
(-8.44616e-05 6.68137e-08 2.89628e-06)
(-8.50609e-05 6.77584e-08 2.89657e-06)
(-8.56687e-05 6.87233e-08 2.89687e-06)
(-8.62852e-05 6.97089e-08 2.89718e-06)
(-8.69108e-05 7.07159e-08 2.89749e-06)
(-8.75454e-05 7.17449e-08 2.8978e-06)
(-8.81893e-05 7.27965e-08 2.89812e-06)
(-8.88429e-05 7.38714e-08 2.89844e-06)
(-8.95061e-05 7.49703e-08 2.89877e-06)
(-9.01794e-05 7.60939e-08 2.8991e-06)
(-9.08628e-05 7.72429e-08 2.89944e-06)
(-9.15567e-05 7.84182e-08 2.89978e-06)
(-9.22613e-05 7.96205e-08 2.90013e-06)
(-9.29768e-05 8.08506e-08 2.90048e-06)
(-9.37034e-05 8.21095e-08 2.90084e-06)
(-9.44416e-05 8.3398e-08 2.9012e-06)
(-9.51914e-05 8.47171e-08 2.90157e-06)
(-9.59533e-05 8.60677e-08 2.90195e-06)
(-9.67274e-05 8.74509e-08 2.90233e-06)
(9.60268e-05 6.95055e-07 3.18503e-06)
(-8.32137e-05 6.49984e-08 2.89313e-06)
(-8.37953e-05 6.59043e-08 2.8934e-06)
(-8.43852e-05 6.68293e-08 2.89368e-06)
(-8.49833e-05 6.77738e-08 2.89395e-06)
(-8.559e-05 6.87386e-08 2.89424e-06)
(-8.62054e-05 6.9724e-08 2.89452e-06)
(-8.68298e-05 7.07309e-08 2.89481e-06)
(-8.74632e-05 7.17597e-08 2.8951e-06)
(-8.8106e-05 7.28111e-08 2.8954e-06)
(-8.87582e-05 7.38858e-08 2.8957e-06)
(-8.94203e-05 7.49844e-08 2.89601e-06)
(-9.00922e-05 7.61077e-08 2.89632e-06)
(-9.07743e-05 7.72565e-08 2.89664e-06)
(-9.14669e-05 7.84315e-08 2.89696e-06)
(-9.21701e-05 7.96335e-08 2.89729e-06)
(-9.28842e-05 8.08633e-08 2.89762e-06)
(-9.36094e-05 8.21219e-08 2.89795e-06)
(-9.43461e-05 8.341e-08 2.8983e-06)
(-9.50944e-05 8.47287e-08 2.89864e-06)
(-9.58548e-05 8.6079e-08 2.899e-06)
(-9.66273e-05 8.74618e-08 2.89935e-06)
(9.62385e-05 6.7251e-07 3.18328e-06)
(-8.31393e-05 6.50141e-08 2.89057e-06)
(-8.372e-05 6.59199e-08 2.89082e-06)
(-8.43086e-05 6.68447e-08 2.89108e-06)
(-8.49058e-05 6.77891e-08 2.89134e-06)
(-8.55113e-05 6.87537e-08 2.8916e-06)
(-8.61257e-05 6.97391e-08 2.89187e-06)
(-8.67488e-05 7.07457e-08 2.89214e-06)
(-8.73811e-05 7.17743e-08 2.89241e-06)
(-8.80226e-05 7.28255e-08 2.89269e-06)
(-8.86738e-05 7.39e-08 2.89297e-06)
(-8.93344e-05 7.49984e-08 2.89326e-06)
(-9.00051e-05 7.61215e-08 2.89355e-06)
(-9.0686e-05 7.727e-08 2.89385e-06)
(-9.13771e-05 7.84447e-08 2.89414e-06)
(-9.2079e-05 7.96464e-08 2.89445e-06)
(-9.27916e-05 8.08759e-08 2.89476e-06)
(-9.35155e-05 8.21341e-08 2.89507e-06)
(-9.42506e-05 8.34219e-08 2.89539e-06)
(-9.49975e-05 8.47402e-08 2.89572e-06)
(-9.57562e-05 8.60901e-08 2.89604e-06)
(-9.65273e-05 8.74724e-08 2.89638e-06)
(9.64567e-05 6.493e-07 3.18146e-06)
(-8.3065e-05 6.50297e-08 2.88801e-06)
(-8.36445e-05 6.59354e-08 2.88825e-06)
(-8.42323e-05 6.68601e-08 2.88848e-06)
(-8.48283e-05 6.78043e-08 2.88872e-06)
(-8.54328e-05 6.87688e-08 2.88897e-06)
(-8.60459e-05 6.97539e-08 2.88921e-06)
(-8.6668e-05 7.07604e-08 2.88947e-06)
(-8.72991e-05 7.17888e-08 2.88972e-06)
(-8.79394e-05 7.28398e-08 2.88998e-06)
(-8.85892e-05 7.3914e-08 2.89024e-06)
(-8.92488e-05 7.50122e-08 2.89051e-06)
(-8.99181e-05 7.6135e-08 2.89078e-06)
(-9.05976e-05 7.72833e-08 2.89105e-06)
(-9.12875e-05 7.84577e-08 2.89133e-06)
(-9.1988e-05 7.96591e-08 2.89161e-06)
(-9.26992e-05 8.08883e-08 2.8919e-06)
(-9.34216e-05 8.21461e-08 2.89219e-06)
(-9.41553e-05 8.34336e-08 2.89249e-06)
(-9.49006e-05 8.47515e-08 2.89279e-06)
(-9.56578e-05 8.6101e-08 2.8931e-06)
(-9.64272e-05 8.74829e-08 2.89341e-06)
(9.66827e-05 6.25513e-07 3.17965e-06)
(-8.29908e-05 6.50452e-08 2.88545e-06)
(-8.35693e-05 6.59507e-08 2.88567e-06)
(-8.41559e-05 6.68753e-08 2.88589e-06)
(-8.47508e-05 6.78194e-08 2.88611e-06)
(-8.53542e-05 6.87837e-08 2.88634e-06)
(-8.59663e-05 6.97686e-08 2.88657e-06)
(-8.65872e-05 7.07749e-08 2.8868e-06)
(-8.72171e-05 7.18031e-08 2.88703e-06)
(-8.78563e-05 7.28539e-08 2.88727e-06)
(-8.85048e-05 7.39279e-08 2.88751e-06)
(-8.91631e-05 7.50259e-08 2.88776e-06)
(-8.98312e-05 7.61484e-08 2.88801e-06)
(-9.05094e-05 7.72964e-08 2.88826e-06)
(-9.11979e-05 7.84705e-08 2.88852e-06)
(-9.1897e-05 7.96716e-08 2.88878e-06)
(-9.26069e-05 8.09005e-08 2.88905e-06)
(-9.33278e-05 8.2158e-08 2.88932e-06)
(-9.406e-05 8.34451e-08 2.88959e-06)
(-9.48039e-05 8.47626e-08 2.88987e-06)
(-9.55595e-05 8.61117e-08 2.89015e-06)
(-9.63273e-05 8.74931e-08 2.89044e-06)
(9.69166e-05 6.01152e-07 3.17784e-06)
(-8.29165e-05 6.50606e-08 2.8829e-06)
(-8.34941e-05 6.5966e-08 2.8831e-06)
(-8.40796e-05 6.68904e-08 2.8833e-06)
(-8.46735e-05 6.78343e-08 2.8835e-06)
(-8.52757e-05 6.87984e-08 2.88371e-06)
(-8.58867e-05 6.97832e-08 2.88392e-06)
(-8.65064e-05 7.07893e-08 2.88413e-06)
(-8.71352e-05 7.18173e-08 2.88435e-06)
(-8.77731e-05 7.28679e-08 2.88457e-06)
(-8.84206e-05 7.39417e-08 2.88479e-06)
(-8.90775e-05 7.50393e-08 2.88501e-06)
(-8.97443e-05 7.61617e-08 2.88524e-06)
(-9.04213e-05 7.73094e-08 2.88548e-06)
(-9.11084e-05 7.84832e-08 2.88571e-06)
(-9.18061e-05 7.9684e-08 2.88595e-06)
(-9.25146e-05 8.09125e-08 2.88619e-06)
(-9.32341e-05 8.21697e-08 2.88644e-06)
(-9.39648e-05 8.34564e-08 2.88669e-06)
(-9.47072e-05 8.47736e-08 2.88695e-06)
(-9.54613e-05 8.61221e-08 2.88721e-06)
(-9.62276e-05 8.75032e-08 2.88747e-06)
(9.71581e-05 5.76218e-07 3.17602e-06)
(-8.28424e-05 6.50758e-08 2.88034e-06)
(-8.34188e-05 6.5981e-08 2.88052e-06)
(-8.40034e-05 6.69053e-08 2.88071e-06)
(-8.45961e-05 6.78491e-08 2.88089e-06)
(-8.51974e-05 6.8813e-08 2.88108e-06)
(-8.58071e-05 6.97976e-08 2.88127e-06)
(-8.64258e-05 7.08035e-08 2.88147e-06)
(-8.70533e-05 7.18313e-08 2.88166e-06)
(-8.76902e-05 7.28817e-08 2.88186e-06)
(-8.83362e-05 7.39552e-08 2.88206e-06)
(-8.8992e-05 7.50527e-08 2.88227e-06)
(-8.96576e-05 7.61747e-08 2.88248e-06)
(-9.03331e-05 7.73221e-08 2.88269e-06)
(-9.1019e-05 7.84957e-08 2.8829e-06)
(-9.17153e-05 7.96961e-08 2.88312e-06)
(-9.24224e-05 8.09243e-08 2.88334e-06)
(-9.31404e-05 8.21811e-08 2.88357e-06)
(-9.38697e-05 8.34675e-08 2.8838e-06)
(-9.46105e-05 8.47842e-08 2.88403e-06)
(-9.53632e-05 8.61324e-08 2.88427e-06)
(-9.61278e-05 8.7513e-08 2.88451e-06)
(9.74074e-05 5.50715e-07 3.1742e-06)
(-8.27683e-05 6.50909e-08 2.87779e-06)
(-8.33438e-05 6.5996e-08 2.87795e-06)
(-8.39272e-05 6.69201e-08 2.87812e-06)
(-8.45189e-05 6.78637e-08 2.87829e-06)
(-8.5119e-05 6.88275e-08 2.87846e-06)
(-8.57277e-05 6.98119e-08 2.87863e-06)
(-8.63452e-05 7.08176e-08 2.8788e-06)
(-8.69716e-05 7.18452e-08 2.87898e-06)
(-8.76071e-05 7.28953e-08 2.87916e-06)
(-8.82521e-05 7.39686e-08 2.87934e-06)
(-8.89066e-05 7.50658e-08 2.87953e-06)
(-8.95708e-05 7.61876e-08 2.87972e-06)
(-9.02451e-05 7.73347e-08 2.87991e-06)
(-9.09296e-05 7.8508e-08 2.8801e-06)
(-9.16246e-05 7.97081e-08 2.8803e-06)
(-9.23303e-05 8.0936e-08 2.8805e-06)
(-9.30469e-05 8.21924e-08 2.8807e-06)
(-9.37747e-05 8.34784e-08 2.88091e-06)
(-9.4514e-05 8.47947e-08 2.88112e-06)
(-9.52651e-05 8.61425e-08 2.88133e-06)
(-9.60282e-05 8.75226e-08 2.88154e-06)
(9.76645e-05 5.24645e-07 3.17238e-06)
(-8.26943e-05 6.51058e-08 2.87524e-06)
(-8.32687e-05 6.60108e-08 2.87539e-06)
(-8.38511e-05 6.69347e-08 2.87553e-06)
(-8.44417e-05 6.78782e-08 2.87568e-06)
(-8.50407e-05 6.88418e-08 2.87583e-06)
(-8.56484e-05 6.9826e-08 2.87599e-06)
(-8.62646e-05 7.08315e-08 2.87614e-06)
(-8.68899e-05 7.18589e-08 2.8763e-06)
(-8.75242e-05 7.29088e-08 2.87646e-06)
(-8.81679e-05 7.39818e-08 2.87662e-06)
(-8.88212e-05 7.50788e-08 2.87679e-06)
(-8.94842e-05 7.62003e-08 2.87696e-06)
(-9.01571e-05 7.73471e-08 2.87713e-06)
(-9.08403e-05 7.852e-08 2.8773e-06)
(-9.15339e-05 7.97198e-08 2.87747e-06)
(-9.22382e-05 8.09474e-08 2.87765e-06)
(-9.29534e-05 8.22035e-08 2.87783e-06)
(-9.36798e-05 8.3489e-08 2.87802e-06)
(-9.44176e-05 8.4805e-08 2.8782e-06)
(-9.51671e-05 8.61523e-08 2.87839e-06)
(-9.59286e-05 8.75319e-08 2.87858e-06)
(9.79292e-05 4.9801e-07 3.17056e-06)
(-8.26203e-05 6.51206e-08 2.87269e-06)
(-8.31937e-05 6.60254e-08 2.87282e-06)
(-8.3775e-05 6.69491e-08 2.87295e-06)
(-8.43646e-05 6.78925e-08 2.87308e-06)
(-8.49626e-05 6.88559e-08 2.87321e-06)
(-8.5569e-05 6.98399e-08 2.87335e-06)
(-8.61842e-05 7.08452e-08 2.87349e-06)
(-8.68082e-05 7.18723e-08 2.87362e-06)
(-8.74414e-05 7.2922e-08 2.87376e-06)
(-8.80839e-05 7.39949e-08 2.87391e-06)
(-8.87359e-05 7.50915e-08 2.87405e-06)
(-8.93976e-05 7.62127e-08 2.8742e-06)
(-9.00693e-05 7.73593e-08 2.87435e-06)
(-9.07511e-05 7.85319e-08 2.8745e-06)
(-9.14433e-05 7.97314e-08 2.87465e-06)
(-9.21463e-05 8.09586e-08 2.87481e-06)
(-9.286e-05 8.22142e-08 2.87497e-06)
(-9.3585e-05 8.34994e-08 2.87513e-06)
(-9.43212e-05 8.48149e-08 2.87529e-06)
(-9.50692e-05 8.61618e-08 2.87546e-06)
(-9.58293e-05 8.75411e-08 2.87563e-06)
(9.82016e-05 4.70814e-07 3.16874e-06)
(-8.25464e-05 6.51352e-08 2.87015e-06)
(-8.31187e-05 6.60398e-08 2.87026e-06)
(-8.36991e-05 6.69634e-08 2.87037e-06)
(-8.42876e-05 6.79066e-08 2.87048e-06)
(-8.48844e-05 6.88698e-08 2.8706e-06)
(-8.54897e-05 6.98536e-08 2.87071e-06)
(-8.61037e-05 7.08587e-08 2.87083e-06)
(-8.67266e-05 7.18857e-08 2.87095e-06)
(-8.73586e-05 7.29351e-08 2.87107e-06)
(-8.79999e-05 7.40076e-08 2.87119e-06)
(-8.86507e-05 7.5104e-08 2.87132e-06)
(-8.93111e-05 7.6225e-08 2.87144e-06)
(-8.99814e-05 7.73712e-08 2.87157e-06)
(-9.0662e-05 7.85435e-08 2.8717e-06)
(-9.13529e-05 7.97427e-08 2.87184e-06)
(-9.20543e-05 8.09695e-08 2.87197e-06)
(-9.27667e-05 8.22248e-08 2.87211e-06)
(-9.34901e-05 8.35096e-08 2.87225e-06)
(-9.4225e-05 8.48247e-08 2.87239e-06)
(-9.49715e-05 8.61711e-08 2.87253e-06)
(-9.57298e-05 8.75499e-08 2.87267e-06)
(9.84817e-05 4.43059e-07 3.16691e-06)
(-8.24726e-05 6.51496e-08 2.8676e-06)
(-8.30439e-05 6.60541e-08 2.8677e-06)
(-8.36231e-05 6.69775e-08 2.86779e-06)
(-8.42106e-05 6.79205e-08 2.86788e-06)
(-8.48063e-05 6.88835e-08 2.86798e-06)
(-8.54105e-05 6.98671e-08 2.86808e-06)
(-8.60234e-05 7.0872e-08 2.86818e-06)
(-8.66451e-05 7.18987e-08 2.86828e-06)
(-8.72759e-05 7.29479e-08 2.86838e-06)
(-8.7916e-05 7.40202e-08 2.86848e-06)
(-8.85655e-05 7.51164e-08 2.86858e-06)
(-8.92247e-05 7.6237e-08 2.86869e-06)
(-8.98937e-05 7.7383e-08 2.8688e-06)
(-9.05729e-05 7.85549e-08 2.86891e-06)
(-9.12624e-05 7.97537e-08 2.86902e-06)
(-9.19625e-05 8.09802e-08 2.86913e-06)
(-9.26734e-05 8.22351e-08 2.86925e-06)
(-9.33955e-05 8.35195e-08 2.86936e-06)
(-9.41288e-05 8.48342e-08 2.86948e-06)
(-9.48737e-05 8.61801e-08 2.8696e-06)
(-9.56306e-05 8.75584e-08 2.86972e-06)
(9.87695e-05 4.14749e-07 3.16509e-06)
(-8.23988e-05 6.51638e-08 2.86506e-06)
(-8.2969e-05 6.60681e-08 2.86514e-06)
(-8.35473e-05 6.69914e-08 2.86521e-06)
(-8.41336e-05 6.79342e-08 2.86529e-06)
(-8.47283e-05 6.8897e-08 2.86537e-06)
(-8.53313e-05 6.98805e-08 2.86544e-06)
(-8.59431e-05 7.08851e-08 2.86552e-06)
(-8.65637e-05 7.19116e-08 2.8656e-06)
(-8.71933e-05 7.29605e-08 2.86569e-06)
(-8.78321e-05 7.40326e-08 2.86577e-06)
(-8.84804e-05 7.51284e-08 2.86585e-06)
(-8.91383e-05 7.62488e-08 2.86594e-06)
(-8.98061e-05 7.73944e-08 2.86603e-06)
(-9.0484e-05 7.85661e-08 2.86612e-06)
(-9.11721e-05 7.97645e-08 2.86621e-06)
(-9.18708e-05 8.09906e-08 2.8663e-06)
(-9.25803e-05 8.22452e-08 2.86639e-06)
(-9.33009e-05 8.35291e-08 2.86648e-06)
(-9.40327e-05 8.48434e-08 2.86658e-06)
(-9.47762e-05 8.61889e-08 2.86668e-06)
(-9.55314e-05 8.75667e-08 2.86678e-06)
(9.90649e-05 3.85878e-07 3.16326e-06)
(-8.2325e-05 6.51811e-08 2.86252e-06)
(-8.28943e-05 6.60854e-08 2.86258e-06)
(-8.34715e-05 6.70085e-08 2.86264e-06)
(-8.40568e-05 6.79512e-08 2.8627e-06)
(-8.46503e-05 6.89139e-08 2.86275e-06)
(-8.52524e-05 6.98972e-08 2.86281e-06)
(-8.58629e-05 7.09017e-08 2.86288e-06)
(-8.64824e-05 7.19281e-08 2.86294e-06)
(-8.71108e-05 7.29768e-08 2.863e-06)
(-8.77484e-05 7.40487e-08 2.86306e-06)
(-8.83954e-05 7.51444e-08 2.86313e-06)
(-8.90521e-05 7.62645e-08 2.86319e-06)
(-8.97186e-05 7.74099e-08 2.86326e-06)
(-9.03951e-05 7.85813e-08 2.86333e-06)
(-9.10819e-05 7.97795e-08 2.8634e-06)
(-9.17792e-05 8.10053e-08 2.86347e-06)
(-9.24873e-05 8.22596e-08 2.86354e-06)
(-9.32064e-05 8.35432e-08 2.86361e-06)
(-9.39368e-05 8.48572e-08 2.86368e-06)
(-9.46786e-05 8.62023e-08 2.86376e-06)
(-9.54324e-05 8.75798e-08 2.86383e-06)
(9.93278e-05 3.59399e-07 3.16136e-06)
(-8.22678e-05 6.61889e-08 2.86054e-06)
(-8.28362e-05 6.71069e-08 2.86058e-06)
(-8.34126e-05 6.80442e-08 2.86062e-06)
(-8.39971e-05 6.90012e-08 2.86067e-06)
(-8.45898e-05 6.99786e-08 2.86071e-06)
(-8.51909e-05 7.09769e-08 2.86076e-06)
(-8.58006e-05 7.19967e-08 2.86081e-06)
(-8.64191e-05 7.30386e-08 2.86085e-06)
(-8.70466e-05 7.41034e-08 2.8609e-06)
(-8.76833e-05 7.51915e-08 2.86095e-06)
(-8.83294e-05 7.63039e-08 2.861e-06)
(-8.89851e-05 7.74411e-08 2.86105e-06)
(-8.96505e-05 7.86038e-08 2.8611e-06)
(-9.0326e-05 7.97931e-08 2.86115e-06)
(-9.10118e-05 8.10094e-08 2.8612e-06)
(-9.1708e-05 8.22539e-08 2.86125e-06)
(-9.2415e-05 8.35272e-08 2.86131e-06)
(-9.3133e-05 8.48303e-08 2.86136e-06)
(-9.38622e-05 8.61641e-08 2.86142e-06)
(-9.46029e-05 8.75297e-08 2.86147e-06)
(-9.53554e-05 8.8928e-08 2.86153e-06)
(0.000107938 -1.52974e-07 3.19375e-06)
)
;

boundaryField
{
    inlet
    {
        type            calculated;
        value           uniform (0 0 0);
    }
    outlet2
    {
        type            calculated;
        value           uniform (0 0 0);
    }
    outlet1
    {
        type            calculated;
        value           uniform (0 0 0);
    }
    wall
    {
        type            calculated;
        value           uniform (0 0 0);
    }
    symmetryBottom
    {
        type            symmetry;
    }
    symmetryZ0
    {
        type            symmetry;
    }
    symmetryZ05
    {
        type            symmetry;
    }
}


// ************************************************************************* //
