/*--------------------------------*- C++ -*----------------------------------*\
| =========                 |                                                 |
| \\      /  F ield         | OpenFOAM: The Open Source CFD Toolbox           |
|  \\    /   O peration     | Version:  2412                                  |
|   \\  /    A nd           | Website:  www.openfoam.com                      |
|    \\/     M anipulation  |                                                 |
\*---------------------------------------------------------------------------*/
FoamFile
{
    version     2.0;
    format      ascii;
    arch        "LSB;label=32;scalar=64";
    class       volVectorField;
    location    "1.07831e-06";
    object      U;
}
// * * * * * * * * * * * * * * * * * * * * * * * * * * * * * * * * * * * * * //

dimensions      [0 0 0 0 0 0 0];

internalField   nonuniform List<vector> 
625
(
(2635.8 -0.0157448 0.0308148)
(2633.66 -0.0212747 0.0367225)
(2633.66 -0.0212951 0.000418082)
(2635.8 -2.2063 0.0308185)
(2633.66 -2.28685 0.0367264)
(2633.66 -2.28688 -5.81844e-05)
(2635.8 -2.19872 0.0308191)
(2633.66 -2.27922 0.0367264)
(2633.66 -2.27924 -4.87124e-05)
(2635.8 -2.19875 0.0308191)
(2633.66 -2.27925 0.0367263)
(2633.66 -2.27927 -4.87482e-05)
(2635.8 -2.19875 0.0308191)
(2633.66 -2.27925 0.0367263)
(2633.66 -2.27927 -4.87481e-05)
(2635.8 -2.19875 0.0308191)
(2633.66 -2.27925 0.0367263)
(2633.66 -2.27927 -4.87481e-05)
(2635.8 -2.19875 0.0308191)
(2633.66 -2.27925 0.0367263)
(2633.66 -2.27927 -4.87481e-05)
(2635.8 -2.19875 0.0308191)
(2633.66 -2.27925 0.0367263)
(2633.66 -2.27927 -4.87481e-05)
(2635.8 -2.19875 0.0308191)
(2633.66 -2.27925 0.0367263)
(2633.66 -2.27927 -4.87481e-05)
(2635.8 -2.19875 0.0308191)
(2633.66 -2.27925 0.0367263)
(2633.66 -2.27927 -4.87481e-05)
(2635.8 -2.19875 0.0308191)
(2633.66 -2.27925 0.0367263)
(2633.66 -2.27927 -4.87481e-05)
(2635.8 -2.19875 0.0308191)
(2633.66 -2.27925 0.0367263)
(2633.66 -2.27927 -4.87481e-05)
(2635.8 -2.19875 0.0308191)
(2633.66 -2.27925 0.0367263)
(2633.66 -2.27927 -4.87481e-05)
(2635.8 -2.19875 0.0308191)
(2633.66 -2.27925 0.0367263)
(2633.66 -2.27927 -4.87481e-05)
(2635.8 -2.19875 0.0308191)
(2633.66 -2.27925 0.0367263)
(2633.66 -2.27927 -4.87481e-05)
(2635.8 -2.19875 0.0308191)
(2633.66 -2.27925 0.0367263)
(2633.66 -2.27927 -4.87481e-05)
(2635.8 -2.19875 0.0308191)
(2633.66 -2.27925 0.0367263)
(2633.66 -2.27927 -4.87481e-05)
(2635.8 -2.19875 0.0308191)
(2633.66 -2.27925 0.0367263)
(2633.66 -2.27927 -4.87481e-05)
(2635.8 -2.19875 0.0308191)
(2633.66 -2.27925 0.0367263)
(2633.66 -2.27927 -4.87481e-05)
(2635.8 -2.19875 0.0308191)
(2633.66 -2.27925 0.0367263)
(2633.66 -2.27927 -4.87481e-05)
(2635.8 -2.19875 0.0308191)
(2633.66 -2.27925 0.0367263)
(2633.66 -2.27927 -4.87481e-05)
(2635.8 -2.19875 0.0308191)
(2633.66 -2.27925 0.0367263)
(2633.66 -2.27927 -4.87482e-05)
(2635.8 -2.19875 0.0308191)
(2633.66 -2.27925 0.0367263)
(2633.66 -2.27927 -4.84048e-05)
(2635.8 -2.19874 0.0308192)
(2633.66 -2.27928 0.0367264)
(2633.66 -2.27951 -0.000189821)
(2635.79 -2.19717 0.0308426)
(2633.66 -2.27243 0.036746)
(2633.66 -2.27266 0.0364812)
(2622.98 0.477076 0.039663)
(2622.87 0.484397 0.0396903)
(2622.77 0.491887 0.039718)
(2622.66 0.499549 0.0397462)
(2622.54 0.507389 0.0397749)
(2622.43 0.515413 0.0398041)
(2622.31 0.523626 0.0398338)
(2622.2 0.532035 0.039864)
(2622.08 0.540646 0.0398948)
(2621.95 0.549464 0.0399261)
(2621.83 0.558498 0.039958)
(2621.7 0.567753 0.0399905)
(2621.57 0.577237 0.0400236)
(2621.44 0.586958 0.0400573)
(2621.3 0.596924 0.0400917)
(2621.16 0.607143 0.0401267)
(2621.02 0.617623 0.0401624)
(2620.88 0.628373 0.0401987)
(2620.73 0.639403 0.0402358)
(2620.58 0.650722 0.0402736)
(2620.42 0.662341 0.0403122)
(2620.44 0.665606 0.00294215)
(2634.6 -2.12713 0.0367456)
(2634.6 -2.14043 0.0367463)
(2634.61 -2.1539 0.036747)
(2634.61 -2.16753 0.0367478)
(2634.61 -2.18132 0.0367485)
(2634.62 -2.19529 0.0367493)
(2634.62 -2.20943 0.0367501)
(2634.63 -2.22375 0.0367508)
(2634.63 -2.23825 0.0367516)
(2634.63 -2.25292 0.0367524)
(2634.64 -2.26779 0.0367531)
(2634.64 -2.28285 0.0367539)
(2634.65 -2.29809 0.0367547)
(2634.65 -2.31354 0.0367555)
(2634.66 -2.32918 0.0367563)
(2634.66 -2.34503 0.0367571)
(2634.66 -2.36108 0.0367579)
(2634.67 -2.37735 0.0367587)
(2634.67 -2.39383 0.0367595)
(2634.68 -2.41053 0.0367603)
(2634.68 -2.42745 0.0367611)
(2634.7 -2.4275 -0.000333252)
(2634.51 -2.2889 0.036805)
(2634.51 -2.30471 0.0368066)
(2634.51 -2.32073 0.0368081)
(2634.52 -2.33697 0.0368097)
(2634.52 -2.35345 0.0368112)
(2634.52 -2.37016 0.0368129)
(2634.52 -2.3871 0.0368145)
(2634.53 -2.4043 0.0368162)
(2634.53 -2.42174 0.0368178)
(2634.53 -2.43944 0.0368195)
(2634.54 -2.4574 0.0368213)
(2634.54 -2.47562 0.036823)
(2634.54 -2.49412 0.0368248)
(2634.54 -2.5129 0.0368266)
(2634.55 -2.53196 0.0368285)
(2634.55 -2.55132 0.0368303)
(2634.55 -2.57097 0.0368322)
(2634.55 -2.59093 0.0368341)
(2634.56 -2.6112 0.0368361)
(2634.56 -2.63179 0.0368381)
(2634.56 -2.65271 0.0368401)
(2634.58 -2.6526 -0.00022047)
(2634.5 -2.28724 0.0368122)
(2634.5 -2.30301 0.0368138)
(2634.5 -2.31899 0.0368154)
(2634.5 -2.33519 0.036817)
(2634.5 -2.35162 0.0368186)
(2634.51 -2.36829 0.0368203)
(2634.51 -2.38519 0.0368219)
(2634.51 -2.40234 0.0368237)
(2634.51 -2.41973 0.0368254)
(2634.52 -2.43738 0.0368271)
(2634.52 -2.45529 0.0368289)
(2634.52 -2.47346 0.0368307)
(2634.52 -2.4919 0.0368326)
(2634.53 -2.51062 0.0368344)
(2634.53 -2.52963 0.0368363)
(2634.53 -2.54892 0.0368382)
(2634.54 -2.56851 0.0368402)
(2634.54 -2.5884 0.0368422)
(2634.54 -2.60861 0.0368442)
(2634.54 -2.62913 0.0368462)
(2634.55 -2.64998 0.0368483)
(2634.56 -2.64986 -0.000216751)
(2634.48 -2.28759 0.0368197)
(2634.48 -2.30336 0.0368213)
(2634.48 -2.31934 0.0368229)
(2634.49 -2.33555 0.0368246)
(2634.49 -2.35199 0.0368263)
(2634.49 -2.36866 0.036828)
(2634.49 -2.38557 0.0368297)
(2634.5 -2.40272 0.0368315)
(2634.5 -2.42012 0.0368333)
(2634.5 -2.43777 0.0368351)
(2634.5 -2.45568 0.0368369)
(2634.5 -2.47386 0.0368388)
(2634.51 -2.49231 0.0368407)
(2634.51 -2.51104 0.0368426)
(2634.51 -2.53005 0.0368446)
(2634.52 -2.54935 0.0368466)
(2634.52 -2.56895 0.0368486)
(2634.52 -2.58885 0.0368506)
(2634.52 -2.60906 0.0368527)
(2634.53 -2.62959 0.0368548)
(2634.53 -2.65044 0.0368569)
(2634.55 -2.65032 -0.000212948)
(2634.46 -2.28792 0.0368271)
(2634.47 -2.30369 0.0368288)
(2634.47 -2.31968 0.0368305)
(2634.47 -2.33589 0.0368322)
(2634.47 -2.35234 0.0368339)
(2634.47 -2.36901 0.0368357)
(2634.48 -2.38593 0.0368375)
(2634.48 -2.40308 0.0368393)
(2634.48 -2.42049 0.0368412)
(2634.48 -2.43815 0.036843)
(2634.49 -2.45607 0.0368449)
(2634.49 -2.47425 0.0368469)
(2634.49 -2.4927 0.0368488)
(2634.49 -2.51144 0.0368508)
(2634.5 -2.53045 0.0368528)
(2634.5 -2.54976 0.0368549)
(2634.5 -2.56936 0.0368569)
(2634.5 -2.58927 0.0368591)
(2634.51 -2.60949 0.0368612)
(2634.51 -2.63002 0.0368634)
(2634.51 -2.65089 0.0368656)
(2634.53 -2.65076 -0.000209141)
(2634.45 -2.28825 0.0368346)
(2634.45 -2.30403 0.0368363)
(2634.45 -2.32002 0.036838)
(2634.45 -2.33624 0.0368398)
(2634.46 -2.35269 0.0368416)
(2634.46 -2.36937 0.0368434)
(2634.46 -2.38628 0.0368453)
(2634.46 -2.40345 0.0368472)
(2634.46 -2.42086 0.0368491)
(2634.47 -2.43852 0.036851)
(2634.47 -2.45645 0.0368529)
(2634.47 -2.47464 0.0368549)
(2634.47 -2.4931 0.0368569)
(2634.48 -2.51183 0.036859)
(2634.48 -2.53086 0.0368611)
(2634.48 -2.55017 0.0368632)
(2634.48 -2.56978 0.0368653)
(2634.49 -2.58969 0.0368675)
(2634.49 -2.60992 0.0368697)
(2634.49 -2.63046 0.036872)
(2634.49 -2.65133 0.0368742)
(2634.51 -2.6512 -0.000205335)
(2634.43 -2.28858 0.036842)
(2634.44 -2.30436 0.0368438)
(2634.44 -2.32036 0.0368456)
(2634.44 -2.33658 0.0368474)
(2634.44 -2.35304 0.0368493)
(2634.44 -2.36972 0.0368512)
(2634.44 -2.38664 0.0368531)
(2634.45 -2.40381 0.036855)
(2634.45 -2.42123 0.036857)
(2634.45 -2.4389 0.0368589)
(2634.45 -2.45683 0.036861)
(2634.45 -2.47502 0.036863)
(2634.46 -2.49349 0.0368651)
(2634.46 -2.51223 0.0368672)
(2634.46 -2.53126 0.0368693)
(2634.46 -2.55058 0.0368715)
(2634.47 -2.5702 0.0368737)
(2634.47 -2.59012 0.036876)
(2634.47 -2.61035 0.0368782)
(2634.47 -2.6309 0.0368805)
(2634.48 -2.65177 0.0368829)
(2634.49 -2.65164 -0.000201531)
(2634.42 -2.28891 0.0368495)
(2634.42 -2.3047 0.0368513)
(2634.42 -2.3207 0.0368532)
(2634.42 -2.33693 0.0368551)
(2634.42 -2.35338 0.036857)
(2634.43 -2.37007 0.0368589)
(2634.43 -2.387 0.0368609)
(2634.43 -2.40418 0.0368628)
(2634.43 -2.4216 0.0368649)
(2634.43 -2.43927 0.0368669)
(2634.44 -2.45721 0.036869)
(2634.44 -2.47541 0.0368711)
(2634.44 -2.49388 0.0368732)
(2634.44 -2.51263 0.0368754)
(2634.44 -2.53166 0.0368776)
(2634.45 -2.55099 0.0368798)
(2634.45 -2.57061 0.0368821)
(2634.45 -2.59054 0.0368844)
(2634.45 -2.61078 0.0368868)
(2634.45 -2.63133 0.0368891)
(2634.46 -2.65222 0.0368915)
(2634.47 -2.65208 -0.000197734)
(2634.4 -2.28923 0.0368569)
(2634.4 -2.30502 0.0368588)
(2634.41 -2.32103 0.0368607)
(2634.41 -2.33726 0.0368626)
(2634.41 -2.35372 0.0368646)
(2634.41 -2.37042 0.0368666)
(2634.41 -2.38735 0.0368686)
(2634.41 -2.40453 0.0368706)
(2634.42 -2.42196 0.0368727)
(2634.42 -2.43964 0.0368748)
(2634.42 -2.45758 0.0368769)
(2634.42 -2.47578 0.0368791)
(2634.42 -2.49426 0.0368813)
(2634.43 -2.51302 0.0368835)
(2634.43 -2.53206 0.0368858)
(2634.43 -2.55139 0.0368881)
(2634.43 -2.57102 0.0368904)
(2634.43 -2.59095 0.0368928)
(2634.43 -2.6112 0.0368952)
(2634.44 -2.63176 0.0368977)
(2634.44 -2.65265 0.0369002)
(2634.46 -2.65251 -0.000193545)
(2634.39 -2.28918 0.0368631)
(2634.39 -2.30497 0.036865)
(2634.39 -2.32098 0.0368669)
(2634.39 -2.33721 0.0368689)
(2634.39 -2.35368 0.0368709)
(2634.39 -2.37038 0.036873)
(2634.4 -2.38731 0.036875)
(2634.4 -2.40449 0.0368771)
(2634.4 -2.42192 0.0368792)
(2634.4 -2.4396 0.0368814)
(2634.4 -2.45754 0.0368836)
(2634.4 -2.47575 0.0368858)
(2634.41 -2.49423 0.036888)
(2634.41 -2.51299 0.0368903)
(2634.41 -2.53204 0.0368926)
(2634.41 -2.55137 0.036895)
(2634.41 -2.571 0.0368974)
(2634.42 -2.59094 0.0368998)
(2634.42 -2.61118 0.0369022)
(2634.42 -2.63175 0.0369048)
(2634.42 -2.65264 0.0369073)
(2634.44 -2.65247 -0.000159718)
(2634.37 -2.28912 0.0368693)
(2634.37 -2.30491 0.0368712)
(2634.37 -2.32093 0.0368732)
(2634.38 -2.33716 0.0368752)
(2634.38 -2.35363 0.0368773)
(2634.38 -2.37033 0.0368794)
(2634.38 -2.38726 0.0368815)
(2634.38 -2.40445 0.0368836)
(2634.38 -2.42188 0.0368858)
(2634.38 -2.43956 0.036888)
(2634.39 -2.45751 0.0368902)
(2634.39 -2.47572 0.0368925)
(2634.39 -2.4942 0.0368948)
(2634.39 -2.51296 0.0368971)
(2634.39 -2.53201 0.0368995)
(2634.39 -2.55135 0.0369019)
(2634.4 -2.57098 0.0369043)
(2634.4 -2.59092 0.0369068)
(2634.4 -2.61117 0.0369093)
(2634.4 -2.63174 0.0369119)
(2634.4 -2.65264 0.0369145)
(2634.42 -2.65246 -0.000156842)
(2634.36 -2.28906 0.0368755)
(2634.36 -2.30485 0.0368775)
(2634.36 -2.32086 0.0368795)
(2634.36 -2.3371 0.0368816)
(2634.36 -2.35357 0.0368837)
(2634.36 -2.37027 0.0368858)
(2634.36 -2.38721 0.0368879)
(2634.37 -2.4044 0.0368901)
(2634.37 -2.42183 0.0368923)
(2634.37 -2.43952 0.0368946)
(2634.37 -2.45746 0.0368969)
(2634.37 -2.47568 0.0368992)
(2634.37 -2.49416 0.0369015)
(2634.37 -2.51293 0.0369039)
(2634.38 -2.53198 0.0369063)
(2634.38 -2.55131 0.0369088)
(2634.38 -2.57095 0.0369113)
(2634.38 -2.59089 0.0369138)
(2634.38 -2.61115 0.0369164)
(2634.38 -2.63172 0.036919)
(2634.39 -2.65262 0.0369217)
(2634.4 -2.65245 -0.000154677)
(2634.34 -2.28899 0.0368817)
(2634.34 -2.30478 0.0368837)
(2634.34 -2.3208 0.0368858)
(2634.34 -2.33704 0.0368879)
(2634.35 -2.35351 0.03689)
(2634.35 -2.37021 0.0368922)
(2634.35 -2.38715 0.0368944)
(2634.35 -2.40434 0.0368966)
(2634.35 -2.42177 0.0368989)
(2634.35 -2.43946 0.0369012)
(2634.35 -2.45741 0.0369035)
(2634.35 -2.47563 0.0369059)
(2634.36 -2.49412 0.0369083)
(2634.36 -2.51288 0.0369107)
(2634.36 -2.53193 0.0369132)
(2634.36 -2.55128 0.0369157)
(2634.36 -2.57092 0.0369182)
(2634.36 -2.59086 0.0369208)
(2634.36 -2.61112 0.0369235)
(2634.37 -2.63169 0.0369261)
(2634.37 -2.6526 0.0369288)
(2634.39 -2.65242 -0.000152517)
(2634.32 -2.28891 0.0368878)
(2634.33 -2.30471 0.0368899)
(2634.33 -2.32073 0.0368921)
(2634.33 -2.33697 0.0368942)
(2634.33 -2.35344 0.0368964)
(2634.33 -2.37014 0.0368986)
(2634.33 -2.38709 0.0369009)
(2634.33 -2.40428 0.0369031)
(2634.33 -2.42171 0.0369054)
(2634.34 -2.4394 0.0369078)
(2634.34 -2.45736 0.0369102)
(2634.34 -2.47557 0.0369126)
(2634.34 -2.49406 0.036915)
(2634.34 -2.51283 0.0369175)
(2634.34 -2.53189 0.03692)
(2634.34 -2.55123 0.0369226)
(2634.34 -2.57087 0.0369252)
(2634.35 -2.59082 0.0369278)
(2634.35 -2.61108 0.0369305)
(2634.35 -2.63166 0.0369332)
(2634.35 -2.65256 0.036936)
(2634.37 -2.65239 -0.000150364)
(2634.31 -2.28883 0.036894)
(2634.31 -2.30463 0.0368962)
(2634.31 -2.32065 0.0368983)
(2634.31 -2.33689 0.0369005)
(2634.31 -2.35336 0.0369028)
(2634.31 -2.37007 0.036905)
(2634.32 -2.38702 0.0369073)
(2634.32 -2.40421 0.0369096)
(2634.32 -2.42164 0.036912)
(2634.32 -2.43934 0.0369144)
(2634.32 -2.45729 0.0369168)
(2634.32 -2.47551 0.0369193)
(2634.32 -2.49401 0.0369218)
(2634.32 -2.51278 0.0369243)
(2634.32 -2.53183 0.0369269)
(2634.33 -2.55118 0.0369295)
(2634.33 -2.57082 0.0369322)
(2634.33 -2.59077 0.0369349)
(2634.33 -2.61104 0.0369376)
(2634.33 -2.63162 0.0369404)
(2634.33 -2.65252 0.0369432)
(2634.35 -2.65236 -0.000148218)
(2634.29 -2.28874 0.0369002)
(2634.29 -2.30454 0.0369024)
(2634.3 -2.32056 0.0369046)
(2634.3 -2.33681 0.0369069)
(2634.3 -2.35328 0.0369091)
(2634.3 -2.36999 0.0369114)
(2634.3 -2.38694 0.0369138)
(2634.3 -2.40413 0.0369162)
(2634.3 -2.42157 0.0369186)
(2634.3 -2.43927 0.036921)
(2634.3 -2.45722 0.0369235)
(2634.3 -2.47545 0.036926)
(2634.31 -2.49394 0.0369285)
(2634.31 -2.51271 0.0369311)
(2634.31 -2.53177 0.0369337)
(2634.31 -2.55112 0.0369364)
(2634.31 -2.57077 0.0369391)
(2634.31 -2.59072 0.0369419)
(2634.31 -2.61098 0.0369447)
(2634.31 -2.63157 0.0369475)
(2634.31 -2.65248 0.0369504)
(2634.33 -2.65231 -0.000146079)
(2634.28 -2.28865 0.0369064)
(2634.28 -2.30445 0.0369087)
(2634.28 -2.32047 0.0369109)
(2634.28 -2.33672 0.0369132)
(2634.28 -2.3532 0.0369155)
(2634.28 -2.36991 0.0369179)
(2634.28 -2.38686 0.0369202)
(2634.28 -2.40405 0.0369227)
(2634.28 -2.42149 0.0369251)
(2634.29 -2.43919 0.0369276)
(2634.29 -2.45715 0.0369301)
(2634.29 -2.47537 0.0369327)
(2634.29 -2.49387 0.0369353)
(2634.29 -2.51264 0.0369379)
(2634.29 -2.5317 0.0369406)
(2634.29 -2.55105 0.0369433)
(2634.29 -2.5707 0.0369461)
(2634.29 -2.59066 0.0369489)
(2634.29 -2.61092 0.0369517)
(2634.29 -2.63151 0.0369546)
(2634.3 -2.65242 0.0369576)
(2634.31 -2.65226 -0.000143946)
(2634.26 -2.28855 0.0369126)
(2634.26 -2.30436 0.0369149)
(2634.26 -2.32038 0.0369172)
(2634.27 -2.33663 0.0369195)
(2634.27 -2.3531 0.0369219)
(2634.27 -2.36982 0.0369243)
(2634.27 -2.38677 0.0369267)
(2634.27 -2.40396 0.0369292)
(2634.27 -2.4214 0.0369317)
(2634.27 -2.4391 0.0369342)
(2634.27 -2.45706 0.0369368)
(2634.27 -2.47529 0.0369394)
(2634.27 -2.49379 0.036942)
(2634.27 -2.51257 0.0369447)
(2634.27 -2.53163 0.0369475)
(2634.27 -2.55098 0.0369502)
(2634.27 -2.57063 0.0369531)
(2634.28 -2.59059 0.0369559)
(2634.28 -2.61086 0.0369588)
(2634.28 -2.63145 0.0369618)
(2634.28 -2.65236 0.0369648)
(2634.3 -2.6522 -0.00014182)
(2634.25 -2.28845 0.0369188)
(2634.25 -2.30425 0.0369211)
(2634.25 -2.32028 0.0369235)
(2634.25 -2.33653 0.0369259)
(2634.25 -2.35301 0.0369283)
(2634.25 -2.36972 0.0369307)
(2634.25 -2.38667 0.0369332)
(2634.25 -2.40387 0.0369357)
(2634.25 -2.42131 0.0369382)
(2634.25 -2.43901 0.0369408)
(2634.25 -2.45697 0.0369434)
(2634.25 -2.4752 0.0369461)
(2634.25 -2.4937 0.0369488)
(2634.26 -2.51248 0.0369516)
(2634.26 -2.53155 0.0369543)
(2634.26 -2.5509 0.0369572)
(2634.26 -2.57055 0.03696)
(2634.26 -2.59051 0.0369629)
(2634.26 -2.61078 0.0369659)
(2634.26 -2.63138 0.0369689)
(2634.26 -2.65229 0.036972)
(2634.28 -2.65213 -0.000139702)
(2634.23 -2.28834 0.036925)
(2634.23 -2.30415 0.0369274)
(2634.23 -2.32017 0.0369298)
(2634.23 -2.33642 0.0369322)
(2634.23 -2.3529 0.0369346)
(2634.23 -2.36962 0.0369371)
(2634.23 -2.38657 0.0369397)
(2634.24 -2.40377 0.0369422)
(2634.24 -2.42121 0.0369448)
(2634.24 -2.43892 0.0369474)
(2634.24 -2.45688 0.0369501)
(2634.24 -2.47511 0.0369528)
(2634.24 -2.49361 0.0369556)
(2634.24 -2.51239 0.0369584)
(2634.24 -2.53146 0.0369612)
(2634.24 -2.55081 0.0369641)
(2634.24 -2.57047 0.036967)
(2634.24 -2.59043 0.03697)
(2634.24 -2.6107 0.036973)
(2634.24 -2.6313 0.036976)
(2634.24 -2.65222 0.0369792)
(2634.26 -2.65206 -0.00013759)
(2634.22 -2.28822 0.0369312)
(2634.22 -2.30403 0.0369336)
(2634.22 -2.32006 0.0369361)
(2634.22 -2.33631 0.0369385)
(2634.22 -2.35279 0.036941)
(2634.22 -2.36951 0.0369436)
(2634.22 -2.38646 0.0369461)
(2634.22 -2.40366 0.0369487)
(2634.22 -2.42111 0.0369514)
(2634.22 -2.43881 0.0369541)
(2634.22 -2.45678 0.0369568)
(2634.22 -2.47501 0.0369595)
(2634.22 -2.49351 0.0369623)
(2634.22 -2.51229 0.0369652)
(2634.22 -2.53136 0.0369681)
(2634.22 -2.55072 0.036971)
(2634.22 -2.57038 0.036974)
(2634.22 -2.59034 0.036977)
(2634.22 -2.61062 0.0369801)
(2634.22 -2.63121 0.0369832)
(2634.22 -2.65213 0.0369864)
(2634.24 -2.65198 -0.000135485)
(2634.2 -2.2881 0.0369375)
(2634.2 -2.30391 0.0369399)
(2634.2 -2.31994 0.0369424)
(2634.2 -2.33619 0.0369449)
(2634.2 -2.35268 0.0369474)
(2634.2 -2.36939 0.03695)
(2634.2 -2.38635 0.0369526)
(2634.2 -2.40355 0.0369553)
(2634.2 -2.421 0.0369579)
(2634.2 -2.4387 0.0369607)
(2634.2 -2.45667 0.0369634)
(2634.2 -2.4749 0.0369663)
(2634.2 -2.49341 0.0369691)
(2634.2 -2.51219 0.036972)
(2634.2 -2.53126 0.0369749)
(2634.2 -2.55062 0.0369779)
(2634.21 -2.57028 0.036981)
(2634.21 -2.59024 0.036984)
(2634.21 -2.61052 0.0369872)
(2634.21 -2.63112 0.0369903)
(2634.21 -2.65204 0.0369936)
(2634.22 -2.65189 -0.000133387)
(2634.19 -2.28801 0.0369437)
(2634.19 -2.30382 0.0369462)
(2634.19 -2.31985 0.0369487)
(2634.19 -2.3361 0.0369512)
(2634.19 -2.35259 0.0369538)
(2634.19 -2.36931 0.0369565)
(2634.19 -2.38626 0.0369591)
(2634.19 -2.40346 0.0369618)
(2634.19 -2.42092 0.0369646)
(2634.19 -2.43862 0.0369673)
(2634.19 -2.45659 0.0369701)
(2634.19 -2.47482 0.036973)
(2634.19 -2.49333 0.0369759)
(2634.19 -2.51212 0.0369789)
(2634.19 -2.53119 0.0369819)
(2634.19 -2.55055 0.0369849)
(2634.19 -2.57021 0.036988)
(2634.19 -2.59018 0.0369911)
(2634.19 -2.61046 0.0369943)
(2634.19 -2.63106 0.0369975)
(2634.19 -2.65199 0.0370008)
(2634.21 -2.65183 -0.000130396)
(2634.17 -2.2818 0.0369699)
(2634.17 -2.29757 0.0369726)
(2634.17 -2.31356 0.0369753)
(2634.17 -2.32978 0.036978)
(2634.17 -2.34622 0.0369808)
(2634.17 -2.36289 0.0369836)
(2634.17 -2.37981 0.0369865)
(2634.17 -2.39696 0.0369894)
(2634.17 -2.41437 0.0369923)
(2634.17 -2.43203 0.0369953)
(2634.17 -2.44996 0.0369984)
(2634.17 -2.46814 0.0370014)
(2634.17 -2.4866 0.0370046)
(2634.17 -2.50534 0.0370077)
(2634.17 -2.52437 0.0370109)
(2634.17 -2.54368 0.0370142)
(2634.17 -2.56329 0.0370175)
(2634.17 -2.58321 0.0370209)
(2634.17 -2.60344 0.0370243)
(2634.17 -2.62399 0.0370278)
(2634.17 -2.64486 0.0370313)
(2634.19 -2.64526 -0.000603636)
)
;

boundaryField
{
    inlet
    {
        type            calculated;
        value           uniform (0 0 0);
    }
    outlet2
    {
        type            calculated;
        value           uniform (0 0 0);
    }
    outlet1
    {
        type            calculated;
        value           uniform (0 0 0);
    }
    wall
    {
        type            calculated;
        value           uniform (0 0 0);
    }
    symmetryBottom
    {
        type            symmetry;
    }
    symmetryZ0
    {
        type            symmetry;
    }
    symmetryZ05
    {
        type            symmetry;
    }
}


// ************************************************************************* //
