/*--------------------------------*- C++ -*----------------------------------*\
| =========                 |                                                 |
| \\      /  F ield         | OpenFOAM: The Open Source CFD Toolbox           |
|  \\    /   O peration     | Version:  2412                                  |
|   \\  /    A nd           | Website:  www.openfoam.com                      |
|    \\/     M anipulation  |                                                 |
\*---------------------------------------------------------------------------*/
FoamFile
{
    version     2.0;
    format      ascii;
    arch        "LSB;label=32;scalar=64";
    class       volScalarField;
    location    "8.8e-06";
    object      E_dof0;
}
// * * * * * * * * * * * * * * * * * * * * * * * * * * * * * * * * * * * * * //

dimensions      [0 0 0 0 0 0 0];

internalField   nonuniform List<scalar> 
84
(
117.189
10.0881
19.0578
117.227
10.1638
18.4212
117.249
10.1586
18.5039
117.25
10.1497
18.5869
117.251
10.1409
18.6698
117.252
10.1321
18.7522
117.252
10.1234
18.8341
117.253
10.1146
18.9156
117.254
10.1059
18.9967
117.255
10.0973
19.0773
117.256
10.0886
19.1575
117.257
10.0799
19.2372
60.1928
56.8143
54.3303
64.2774
60.5421
57.8845
63.8096
60.1143
57.522
63.2837
59.5025
60.2572
51.7137
62.7572
59.0406
59.4034
56.5429
62.2353
58.5665
58.9115
56.1455
61.7176
58.0958
58.4292
55.6892
61.2041
57.6288
57.9501
55.2555
60.6946
57.1687
57.3633
57.6575
52.4062
60.1892
56.7089
56.9017
57.0162
54.3366
59.6878
56.2529
56.4366
56.5379
53.9481
59.1908
55.7982
56.0737
53.5213
)
;

boundaryField
{
    inlet
    {
        type            calculated;
        value           uniform 99.4306;
    }
    outlet2
    {
        type            calculated;
        value           uniform 99.4306;
    }
    outlet1
    {
        type            calculated;
        value           nonuniform List<scalar> 0();
    }
    wall
    {
        type            calculated;
        value           uniform 99.4306;
    }
    symmetryBottom
    {
        type            symmetry;
    }
    symmetryZ0
    {
        type            symmetry;
    }
    symmetryZ05
    {
        type            symmetry;
    }
    procBoundary1to0
    {
        type            processor;
        value           uniform 99.4306;
    }
}


// ************************************************************************* //
