/*--------------------------------*- C++ -*----------------------------------*\
| =========                 |                                                 |
| \\      /  F ield         | OpenFOAM: The Open Source CFD Toolbox           |
|  \\    /   O peration     | Version:  2412                                  |
|   \\  /    A nd           | Website:  www.openfoam.com                      |
|    \\/     M anipulation  |                                                 |
\*---------------------------------------------------------------------------*/
FoamFile
{
    version     2.0;
    format      ascii;
    arch        "LSB;label=32;scalar=64";
    class       volScalarField;
    location    "8.8e-06";
    object      rho;
}
// * * * * * * * * * * * * * * * * * * * * * * * * * * * * * * * * * * * * * //

dimensions      [0 0 0 0 0 0 0];

internalField   nonuniform List<scalar> 
84
(
3.30285e-05
3.03699e-06
5.5179e-06
3.30389e-05
3.058e-06
5.34082e-06
3.30452e-05
3.05662e-06
5.36385e-06
3.30455e-05
3.05419e-06
5.38689e-06
3.30457e-05
3.05176e-06
5.40989e-06
3.30459e-05
3.04935e-06
5.43276e-06
3.30461e-05
3.04694e-06
5.45552e-06
3.30463e-05
3.04454e-06
5.47815e-06
3.30465e-05
3.04216e-06
5.50067e-06
3.30467e-05
3.03978e-06
5.52306e-06
3.3047e-05
3.0374e-06
5.54533e-06
3.30473e-05
3.035e-06
5.56748e-06
1.71071e-05
1.61678e-05
1.54819e-05
1.82531e-05
1.72151e-05
1.64816e-05
1.81217e-05
1.70948e-05
1.63792e-05
1.79741e-05
1.69239e-05
1.71322e-05
1.47501e-05
1.78264e-05
1.6794e-05
1.68936e-05
1.61042e-05
1.76799e-05
1.66607e-05
1.67554e-05
1.59922e-05
1.75346e-05
1.65283e-05
1.66199e-05
1.58638e-05
1.73905e-05
1.6397e-05
1.64852e-05
1.57415e-05
1.72475e-05
1.62676e-05
1.63212e-05
1.64024e-05
1.49419e-05
1.71056e-05
1.61383e-05
1.61914e-05
1.62227e-05
1.5483e-05
1.69648e-05
1.60101e-05
1.60606e-05
1.60882e-05
1.53733e-05
1.68252e-05
1.58822e-05
1.59577e-05
1.5253e-05
)
;

boundaryField
{
    inlet
    {
        type            calculated;
        value           uniform 0;
    }
    outlet2
    {
        type            calculated;
        value           uniform 0;
    }
    outlet1
    {
        type            calculated;
        value           nonuniform List<scalar> 0();
    }
    wall
    {
        type            calculated;
        value           uniform 0;
    }
    symmetryBottom
    {
        type            symmetry;
    }
    symmetryZ0
    {
        type            symmetry;
    }
    symmetryZ05
    {
        type            symmetry;
    }
    procBoundary1to0
    {
        type            processor;
        value           uniform 0;
    }
}


// ************************************************************************* //
