/*--------------------------------*- C++ -*----------------------------------*\
| =========                 |                                                 |
| \\      /  F ield         | OpenFOAM: The Open Source CFD Toolbox           |
|  \\    /   O peration     | Version:  2412                                  |
|   \\  /    A nd           | Website:  www.openfoam.com                      |
|    \\/     M anipulation  |                                                 |
\*---------------------------------------------------------------------------*/
FoamFile
{
    version     2.0;
    format      ascii;
    arch        "LSB;label=32;scalar=64";
    class       volVectorField;
    location    "8.8e-06";
    object      rhoU;
}
// * * * * * * * * * * * * * * * * * * * * * * * * * * * * * * * * * * * * * //

dimensions      [0 0 0 0 0 0 0];

internalField   nonuniform List<vector> 
84
(
(0.0872102 1.77968e-07 -3.27931e-21)
(0.00775757 -4.37043e-07 2.39604e-20)
(0.0143727 7.6352e-08 -1.23365e-19)
(0.0872376 -0.000246977 -3.47269e-21)
(0.00781359 -3.29822e-05 2.52815e-20)
(0.0139009 -4.85562e-05 -1.29213e-19)
(0.0872542 -0.000247025 4.56441e-21)
(0.0078098 -3.30118e-05 -3.31722e-20)
(0.0139621 -4.83542e-05 1.69004e-19)
(0.0872548 -0.000247034 -5.96045e-21)
(0.0078033 -3.29927e-05 4.32861e-20)
(0.0140234 -4.85497e-05 -2.23005e-19)
(0.0872554 -0.000247036 -1.05903e-20)
(0.00779681 -3.29722e-05 7.63512e-20)
(0.0140846 -4.87484e-05 -3.83062e-19)
(0.087256 -0.000247037 5.80041e-21)
(0.00779034 -3.29518e-05 -4.18212e-20)
(0.0141454 -4.89452e-05 2.1306e-19)
(0.0872566 -0.000247039 -7.76694e-21)
(0.0077839 -3.29314e-05 5.6355e-20)
(0.014206 -4.91409e-05 -2.87023e-19)
(0.0872571 -0.000247041 -9.01502e-21)
(0.00777749 -3.29112e-05 6.53441e-20)
(0.0142662 -4.93355e-05 -3.33501e-19)
(0.0872577 -0.000247043 3.35532e-21)
(0.0077711 -3.2891e-05 -2.42472e-20)
(0.0143261 -4.95292e-05 1.22482e-19)
(0.0872583 -0.000247044 -7.66204e-21)
(0.00776474 -3.28709e-05 5.61554e-20)
(0.0143857 -4.97219e-05 -2.91418e-19)
(0.0872589 -0.000247046 -1.98596e-20)
(0.00775837 -3.28507e-05 1.44859e-19)
(0.0144449 -4.99135e-05 -7.43525e-19)
(0.0872599 -0.000247259 5.85376e-24)
(0.00775196 -3.24385e-05 -1.20502e-22)
(0.0145038 -4.97978e-05 1.88517e-21)
(0.0449719 -2.84766e-06 -1.77338e-21)
(0.042475 -2.71995e-06 1.8519e-19)
(0.0406452 -2.63197e-06 -1.84334e-20)
(0.0480115 -0.000160904 -1.21843e-21)
(0.0452508 -0.000154485 1.88185e-19)
(0.0432933 -0.000147195 -2.18623e-20)
(0.0476639 -0.000162521 -1.06861e-20)
(0.0449328 -0.00015593 -6.7391e-20)
(0.0430231 -0.000150299 -2.73702e-19)
(0.0472734 -0.000161277 2.05744e-20)
(0.0444795 -0.000153747 -3.58041e-21)
(0.0450354 -0.000170782 -2.55303e-20)
(0.0387112 4.46405e-05 3.58086e-19)
(0.0468823 -0.000159958 -5.14225e-20)
(0.0441361 -0.00015311 1.86383e-21)
(0.0444027 -0.000156687 -2.51139e-20)
(0.0422959 -0.000145161 3.20167e-19)
(0.0464948 -0.000158667 -7.12009e-21)
(0.0437836 -0.000151929 -1.86144e-19)
(0.0440372 -0.000155143 -6.75021e-21)
(0.042 -0.000147321 2.19121e-19)
(0.0461104 -0.000157386 2.59797e-20)
(0.0434338 -0.000150742 -3.39702e-21)
(0.0436788 -0.000153906 -1.7147e-21)
(0.0416606 -0.000146198 -2.24535e-22)
(0.0457289 -0.000156115 4.5473e-20)
(0.0430867 -0.000149567 -2.01291e-19)
(0.0433227 -0.000152624 1.93681e-19)
(0.0413378 -0.000146448 9.84922e-22)
(0.0453505 -0.000154853 8.71718e-21)
(0.0427446 -0.000148432 -2.54234e-19)
(0.0428878 -0.00015043 -2.66316e-19)
(0.0431044 -0.000166576 1.64103e-19)
(0.0392221 4.37642e-05 1.76366e-18)
(0.0449751 -0.000153602 4.75021e-20)
(0.0424028 -0.000147254 -2.84293e-19)
(0.0425446 -0.000149796 1.74352e-19)
(0.0426286 -0.000152583 4.19315e-19)
(0.0406546 -0.000143463 2.89582e-19)
(0.0446027 -0.00015236 7.06158e-20)
(0.0420638 -0.000146102 -4.08595e-21)
(0.0421988 -0.000148655 7.86974e-23)
(0.0422731 -0.000150162 1.80048e-20)
(0.0403653 -0.000158391 -2.32775e-19)
(0.0442335 -0.000151085 -1.98995e-20)
(0.0417258 -0.000144875 2.76828e-19)
(0.041928 -0.000147071 1.22431e-20)
(0.0400476 -0.000157107 -4.4604e-19)
)
;

boundaryField
{
    inlet
    {
        type            calculated;
        value           uniform (0 0 0);
    }
    outlet2
    {
        type            calculated;
        value           uniform (0 0 0);
    }
    outlet1
    {
        type            calculated;
        value           nonuniform List<vector> 0();
    }
    wall
    {
        type            calculated;
        value           uniform (0 0 0);
    }
    symmetryBottom
    {
        type            symmetry;
    }
    symmetryZ0
    {
        type            symmetry;
    }
    symmetryZ05
    {
        type            symmetry;
    }
    procBoundary1to0
    {
        type            processor;
        value           uniform (0 0 0);
    }
}


// ************************************************************************* //
