/*--------------------------------*- C++ -*----------------------------------*\
| =========                 |                                                 |
| \\      /  F ield         | OpenFOAM: The Open Source CFD Toolbox           |
|  \\    /   O peration     | Version:  2412                                  |
|   \\  /    A nd           | Website:  www.openfoam.com                      |
|    \\/     M anipulation  |                                                 |
\*---------------------------------------------------------------------------*/
FoamFile
{
    version     2.0;
    format      ascii;
    arch        "LSB;label=32;scalar=64";
    class       volScalarField;
    location    "9e-07";
    object      rho;
}
// * * * * * * * * * * * * * * * * * * * * * * * * * * * * * * * * * * * * * //

dimensions      [0 0 0 0 0 0 0];

internalField   nonuniform List<scalar> 
84
(
2.81085e-05
2.42322e-05
2.43549e-05
2.81088e-05
2.42332e-05
2.43558e-05
2.81087e-05
2.42331e-05
2.43557e-05
2.81087e-05
2.42331e-05
2.43557e-05
2.81087e-05
2.42331e-05
2.43557e-05
2.81087e-05
2.42331e-05
2.43557e-05
2.81087e-05
2.42331e-05
2.43557e-05
2.81087e-05
2.42331e-05
2.43557e-05
2.81087e-05
2.42331e-05
2.43557e-05
2.81087e-05
2.42331e-05
2.43557e-05
2.81087e-05
2.42331e-05
2.43557e-05
2.81087e-05
2.42328e-05
2.43554e-05
2.65544e-05
2.65249e-05
2.65471e-05
2.67675e-05
2.67381e-05
2.67605e-05
2.67457e-05
2.67162e-05
2.67385e-05
2.67238e-05
2.66943e-05
2.66971e-05
2.65183e-05
2.67019e-05
2.66725e-05
2.66749e-05
2.66973e-05
2.66801e-05
2.66506e-05
2.66527e-05
2.66751e-05
2.66583e-05
2.66288e-05
2.66306e-05
2.6653e-05
2.66366e-05
2.66071e-05
2.66085e-05
2.66309e-05
2.66147e-05
2.65852e-05
2.65863e-05
2.65873e-05
2.65196e-05
2.65932e-05
2.65637e-05
2.65645e-05
2.65652e-05
2.65878e-05
2.65714e-05
2.65418e-05
2.65424e-05
2.65427e-05
2.6566e-05
2.65496e-05
2.65201e-05
2.65203e-05
2.65426e-05
)
;

boundaryField
{
    inlet
    {
        type            calculated;
        value           uniform 0;
    }
    outlet2
    {
        type            calculated;
        value           uniform 0;
    }
    outlet1
    {
        type            calculated;
        value           nonuniform List<scalar> 0();
    }
    wall
    {
        type            calculated;
        value           uniform 0;
    }
    symmetryBottom
    {
        type            symmetry;
    }
    symmetryZ0
    {
        type            symmetry;
    }
    symmetryZ05
    {
        type            symmetry;
    }
    procBoundary1to0
    {
        type            processor;
        value           uniform 0;
    }
}


// ************************************************************************* //
