/*--------------------------------*- C++ -*----------------------------------*\
| =========                 |                                                 |
| \\      /  F ield         | OpenFOAM: The Open Source CFD Toolbox           |
|  \\    /   O peration     | Version:  2412                                  |
|   \\  /    A nd           | Website:  www.openfoam.com                      |
|    \\/     M anipulation  |                                                 |
\*---------------------------------------------------------------------------*/
FoamFile
{
    version     2.0;
    format      ascii;
    arch        "LSB;label=32;scalar=64";
    class       volVectorField;
    location    "9e-07";
    object      rhoU;
}
// * * * * * * * * * * * * * * * * * * * * * * * * * * * * * * * * * * * * * //

dimensions      [0 0 0 0 0 0 0];

internalField   nonuniform List<vector> 
84
(
(0.074105 -1.20502e-08 0)
(0.0638262 -9.49472e-08 0)
(0.0641534 -9.028e-08 -3.12252e-20)
(0.0741056 -2.44419e-05 0)
(0.0638287 -2.2133e-05 0)
(0.0641558 -2.22049e-05 -2.81027e-20)
(0.0741055 -2.44258e-05 0)
(0.0638285 -2.2119e-05 0)
(0.0641556 -2.21908e-05 4.83991e-20)
(0.0741055 -2.44258e-05 0)
(0.0638285 -2.2119e-05 0)
(0.0641556 -2.21908e-05 -6.40132e-20)
(0.0741055 -2.44258e-05 0)
(0.0638285 -2.2119e-05 0)
(0.0641556 -2.21908e-05 -1.09289e-19)
(0.0741055 -2.44258e-05 0)
(0.0638285 -2.2119e-05 0)
(0.0641556 -2.21908e-05 6.08893e-20)
(0.0741055 -2.44258e-05 0)
(0.0638285 -2.2119e-05 0)
(0.0641556 -2.21908e-05 -7.65033e-20)
(0.0741055 -2.44258e-05 0)
(0.0638285 -2.2119e-05 0)
(0.0641556 -2.21908e-05 -9.05539e-20)
(0.0741055 -2.44258e-05 0)
(0.0638285 -2.2119e-05 0)
(0.0641556 -2.21908e-05 3.27863e-20)
(0.0741055 -2.44258e-05 0)
(0.0638285 -2.2119e-05 0)
(0.0641556 -2.21908e-05 -7.6504e-20)
(0.0741055 -2.44258e-05 0)
(0.0638285 -2.2119e-05 0)
(0.0641556 -2.21907e-05 -1.9516e-19)
(0.0741055 -2.44291e-05 0)
(0.0638277 -2.20382e-05 0)
(0.0641549 -2.21147e-05 0)
(0.0699797 2.46918e-05 4.09734e-22)
(0.0699009 2.47013e-05 2.58384e-20)
(0.0699598 2.47187e-05 2.52799e-21)
(0.0705494 -2.45801e-05 3.64275e-22)
(0.0704709 -2.4904e-05 2.71548e-20)
(0.0705301 -2.49168e-05 -7.70384e-23)
(0.0704914 -2.45644e-05 -6.27592e-22)
(0.0704128 -2.48879e-05 -1.03574e-20)
(0.070472 -2.4898e-05 -5.50264e-20)
(0.0704334 -2.45486e-05 8.3471e-22)
(0.0703548 -2.48718e-05 -4.2473e-22)
(0.0703621 -2.52274e-05 5.04915e-24)
(0.0698881 1.97021e-07 3.84402e-20)
(0.0703754 -2.45327e-05 -1.63831e-20)
(0.0702968 -2.48556e-05 -2.07439e-22)
(0.0703033 -2.52108e-05 -4.20602e-22)
(0.0703626 -2.52239e-05 3.58891e-20)
(0.0703174 -2.32525e-05 -7.89659e-22)
(0.0702388 -2.35751e-05 -2.71109e-20)
(0.0702444 -2.39124e-05 -4.14704e-22)
(0.0703037 -2.39249e-05 2.5232e-20)
(0.0702593 -1.86792e-05 8.27275e-22)
(0.0701806 -1.89981e-05 -2.47609e-23)
(0.0701853 -1.92692e-05 -2.04022e-22)
(0.0702446 -1.92796e-05 -2.14452e-22)
(0.0702014 -1.56891e-05 1.37219e-21)
(0.0701227 -1.60058e-05 -2.56512e-20)
(0.0701267 -1.6234e-05 2.80834e-20)
(0.0701859 -1.62409e-05 1.78707e-22)
(0.0701435 -1.42246e-05 -4.09785e-22)
(0.0700647 -1.45393e-05 -3.98123e-20)
(0.0700678 -1.47459e-05 -4.13697e-20)
(0.0700703 -1.49592e-05 4.17805e-20)
(0.0698914 2.16803e-07 2.87528e-19)
(0.0700867 -1.43e-05 1.10991e-21)
(0.070008 -1.46135e-05 -4.25805e-20)
(0.0700103 -1.482e-05 2.54655e-20)
(0.070012 -1.50332e-05 6.73132e-20)
(0.0700718 -1.50528e-05 4.18312e-20)
(0.070029 -1.60602e-05 2.73562e-21)
(0.0699502 -1.63747e-05 -1.57049e-23)
(0.0699517 -1.66066e-05 5.27017e-23)
(0.0699526 -1.68478e-05 8.18641e-24)
(0.0700142 -1.69899e-05 -3.76746e-20)
(0.0699715 -1.93454e-05 3.03154e-23)
(0.0698927 -1.96598e-05 4.00182e-20)
(0.0698933 -1.99385e-05 -5.03246e-22)
(0.0699524 -1.99488e-05 -6.76277e-20)
)
;

boundaryField
{
    inlet
    {
        type            calculated;
        value           uniform (0 0 0);
    }
    outlet2
    {
        type            calculated;
        value           uniform (0 0 0);
    }
    outlet1
    {
        type            calculated;
        value           nonuniform List<vector> 0();
    }
    wall
    {
        type            calculated;
        value           uniform (0 0 0);
    }
    symmetryBottom
    {
        type            symmetry;
    }
    symmetryZ0
    {
        type            symmetry;
    }
    symmetryZ05
    {
        type            symmetry;
    }
    procBoundary1to0
    {
        type            processor;
        value           uniform (0 0 0);
    }
}


// ************************************************************************* //
