/*--------------------------------*- C++ -*----------------------------------*\
| =========                 |                                                 |
| \\      /  F ield         | OpenFOAM: The Open Source CFD Toolbox           |
|  \\    /   O peration     | Version:  2412                                  |
|   \\  /    A nd           | Website:  www.openfoam.com                      |
|    \\/     M anipulation  |                                                 |
\*---------------------------------------------------------------------------*/
FoamFile
{
    version     2.0;
    format      ascii;
    arch        "LSB;label=32;scalar=64";
    class       volVectorField;
    location    "9e-07";
    object      U;
}
// * * * * * * * * * * * * * * * * * * * * * * * * * * * * * * * * * * * * * //

dimensions      [0 0 0 0 0 0 0];

internalField   nonuniform List<vector> 
84
(
(2636.39 -0.000428703 0)
(2633.94 -0.00391822 0)
(2634.11 -0.00370686 -1.28209e-15)
(2636.39 -0.869548 0)
(2633.94 -0.913337 0)
(2634.11 -0.911689 -1.15384e-15)
(2636.39 -0.868975 0)
(2633.94 -0.912761 0)
(2634.11 -0.911113 1.98718e-15)
(2636.39 -0.868975 0)
(2633.94 -0.912761 0)
(2634.11 -0.911113 -2.62826e-15)
(2636.39 -0.868975 0)
(2633.94 -0.912761 0)
(2634.11 -0.911113 -4.4872e-15)
(2636.39 -0.868975 0)
(2633.94 -0.912761 0)
(2634.11 -0.911113 2.5e-15)
(2636.39 -0.868975 0)
(2633.94 -0.912761 0)
(2634.11 -0.911113 -3.14108e-15)
(2636.39 -0.868975 0)
(2633.94 -0.912761 0)
(2634.11 -0.911113 -3.71797e-15)
(2636.39 -0.868975 0)
(2633.94 -0.912761 0)
(2634.11 -0.911113 1.34614e-15)
(2636.39 -0.868975 0)
(2633.94 -0.912761 0)
(2634.11 -0.911113 -3.14111e-15)
(2636.39 -0.868975 0)
(2633.94 -0.912758 0)
(2634.11 -0.91111 -8.01289e-15)
(2636.39 -0.869095 0)
(2633.94 -0.909438 0)
(2634.11 -0.907999 0)
(2635.33 0.929856 1.543e-17)
(2635.3 0.931251 9.74119e-16)
(2635.31 0.931126 9.52266e-17)
(2635.63 -0.918282 1.36088e-17)
(2635.6 -0.931405 1.01558e-15)
(2635.61 -0.931106 -2.87881e-18)
(2635.62 -0.918445 -2.34652e-17)
(2635.58 -0.931565 -3.87683e-16)
(2635.6 -0.931166 -2.05794e-15)
(2635.61 -0.918604 3.12347e-17)
(2635.57 -0.931726 -1.59109e-17)
(2635.57 -0.944951 1.89127e-19)
(2635.46 0.00742961 1.44957e-15)
(2635.59 -0.91876 -6.13555e-16)
(2635.56 -0.931882 -7.77727e-18)
(2635.56 -0.945113 -1.57677e-17)
(2635.57 -0.94481 1.3443e-15)
(2635.57 -0.871531 -2.95973e-17)
(2635.54 -0.884599 -1.01727e-15)
(2635.54 -0.897183 -1.55595e-17)
(2635.55 -0.896901 9.459e-16)
(2635.55 -0.700691 3.10325e-17)
(2635.51 -0.713442 -9.29853e-19)
(2635.51 -0.723575 -7.66118e-18)
(2635.53 -0.723356 -8.04607e-18)
(2635.53 -0.589008 5.15155e-17)
(2635.49 -0.601561 -9.64075e-16)
(2635.49 -0.610104 1.05543e-15)
(2635.51 -0.609853 6.7105e-18)
(2635.52 -0.534465 -1.53969e-17)
(2635.48 -0.546896 -1.49754e-15)
(2635.48 -0.554641 -1.55605e-15)
(2635.48 -0.562646 1.57145e-15)
(2635.46 0.00817519 1.08421e-14)
(2635.51 -0.537731 4.17365e-17)
(2635.48 -0.550132 -1.60296e-15)
(2635.48 -0.557885 9.58626e-16)
(2635.48 -0.5659 2.53389e-15)
(2635.49 -0.566155 1.57333e-15)
(2635.51 -0.604418 1.02954e-16)
(2635.47 -0.616938 -5.91703e-19)
(2635.47 -0.625662 1.98557e-18)
(2635.47 -0.634743 3.08424e-19)
(2635.48 -0.639536 -1.41815e-15)
(2635.5 -0.728652 1.14184e-18)
(2635.46 -0.741317 1.50898e-15)
(2635.46 -0.751818 -1.89759e-17)
(2635.48 -0.751578 -2.54789e-15)
)
;

boundaryField
{
    inlet
    {
        type            calculated;
        value           uniform (0 0 0);
    }
    outlet2
    {
        type            calculated;
        value           uniform (0 0 0);
    }
    outlet1
    {
        type            calculated;
        value           nonuniform List<vector> 0();
    }
    wall
    {
        type            calculated;
        value           uniform (0 0 0);
    }
    symmetryBottom
    {
        type            symmetry;
    }
    symmetryZ0
    {
        type            symmetry;
    }
    symmetryZ05
    {
        type            symmetry;
    }
    procBoundary1to0
    {
        type            processor;
        value           uniform (0 0 0);
    }
}


// ************************************************************************* //
