/*--------------------------------*- C++ -*----------------------------------*\
| =========                 |                                                 |
| \\      /  F ield         | OpenFOAM: The Open Source CFD Toolbox           |
|  \\    /   O peration     | Version:  2412                                  |
|   \\  /    A nd           | Website:  www.openfoam.com                      |
|    \\/     M anipulation  |                                                 |
\*---------------------------------------------------------------------------*/
FoamFile
{
    version     2.0;
    format      ascii;
    arch        "LSB;label=32;scalar=64";
    class       volScalarField;
    location    "3.8e-06";
    object      E;
}
// * * * * * * * * * * * * * * * * * * * * * * * * * * * * * * * * * * * * * //

dimensions      [0 0 0 0 0 0 0];

internalField   nonuniform List<scalar> 
84
(
98.5179
76.3229
77.6933
77.6401
77.6437
77.6457
77.6478
77.9728
102.025
79.1024
80.5608
80.5494
80.598
80.6463
80.6963
81.0307
101.464
78.9938
80.2491
80.2477
80.2908
80.3342
80.3791
80.7126
101.182
78.5657
80.0022
79.9832
80.0234
80.0631
80.3956
100.984
78.2675
79.7018
79.678
79.7133
79.748
80.0795
100.62
77.978
79.4029
79.3746
79.405
79.4347
79.7653
100.263
77.6954
79.1107
79.078
79.1037
79.1284
79.4581
99.8071
77.5175
78.8162
78.7872
78.8079
78.828
79.1568
99.5181
77.1808
78.576
78.5355
78.5528
78.8807
99.1519
76.8131
78.2007
78.1547
78.166
78.4927
98.7576
76.5427
77.9174
77.8671
77.8738
78.1996
98.0657
76.3157
77.6237
77.573
77.5749
77.5753
77.9002
)
;

boundaryField
{
    inlet
    {
        type            calculated;
        value           nonuniform List<scalar> 0();
    }
    outlet2
    {
        type            calculated;
        value           uniform 0;
    }
    outlet1
    {
        type            calculated;
        value           uniform 0;
    }
    wall
    {
        type            calculated;
        value           uniform 0;
    }
    symmetryBottom
    {
        type            symmetry;
    }
    symmetryZ0
    {
        type            symmetry;
    }
    symmetryZ05
    {
        type            symmetry;
    }
    procBoundary0to1
    {
        type            processor;
        value           uniform 0;
    }
}


// ************************************************************************* //
