/*--------------------------------*- C++ -*----------------------------------*\
| =========                 |                                                 |
| \\      /  F ield         | OpenFOAM: The Open Source CFD Toolbox           |
|  \\    /   O peration     | Version:  2412                                  |
|   \\  /    A nd           | Website:  www.openfoam.com                      |
|    \\/     M anipulation  |                                                 |
\*---------------------------------------------------------------------------*/
FoamFile
{
    version     2.0;
    format      ascii;
    arch        "LSB;label=32;scalar=64";
    class       volScalarField;
    location    "3.8e-06";
    object      rho_dof0;
}
// * * * * * * * * * * * * * * * * * * * * * * * * * * * * * * * * * * * * * //

dimensions      [0 0 0 0 0 0 0];

internalField   nonuniform List<scalar> 
84
(
2.78668e-05
2.16554e-05
2.20346e-05
2.20202e-05
2.20213e-05
2.2022e-05
2.20227e-05
2.21137e-05
2.88374e-05
2.24264e-05
2.28297e-05
2.28269e-05
2.28405e-05
2.28541e-05
2.2868e-05
2.29616e-05
2.8681e-05
2.23953e-05
2.27425e-05
2.27424e-05
2.27545e-05
2.27667e-05
2.27792e-05
2.28726e-05
2.86023e-05
2.2276e-05
2.26733e-05
2.26683e-05
2.26796e-05
2.26907e-05
2.27838e-05
2.85464e-05
2.21925e-05
2.25892e-05
2.25829e-05
2.25927e-05
2.26024e-05
2.26953e-05
2.84441e-05
2.21109e-05
2.2505e-05
2.24974e-05
2.25059e-05
2.25142e-05
2.26068e-05
2.83415e-05
2.20297e-05
2.2421e-05
2.24122e-05
2.24193e-05
2.24262e-05
2.25185e-05
2.8211e-05
2.19771e-05
2.2336e-05
2.23281e-05
2.23338e-05
2.23393e-05
2.24314e-05
2.81162e-05
2.1871e-05
2.22563e-05
2.2245e-05
2.22495e-05
2.23413e-05
2.80458e-05
2.17933e-05
2.21774e-05
2.2165e-05
2.21684e-05
2.22598e-05
2.79274e-05
2.17115e-05
2.20918e-05
2.20781e-05
2.208e-05
2.21712e-05
2.77309e-05
2.16465e-05
2.2008e-05
2.19941e-05
2.19947e-05
2.19948e-05
2.20858e-05
)
;

boundaryField
{
    inlet
    {
        type            calculated;
        value           nonuniform List<scalar> 0();
    }
    outlet2
    {
        type            calculated;
        value           uniform 2.81085e-05;
    }
    outlet1
    {
        type            calculated;
        value           uniform 2.81085e-05;
    }
    wall
    {
        type            calculated;
        value           uniform 2.81085e-05;
    }
    symmetryBottom
    {
        type            symmetry;
    }
    symmetryZ0
    {
        type            symmetry;
    }
    symmetryZ05
    {
        type            symmetry;
    }
    procBoundary0to1
    {
        type            processor;
        value           uniform 2.81085e-05;
    }
}


// ************************************************************************* //
