/*--------------------------------*- C++ -*----------------------------------*\
| =========                 |                                                 |
| \\      /  F ield         | OpenFOAM: The Open Source CFD Toolbox           |
|  \\    /   O peration     | Version:  2412                                  |
|   \\  /    A nd           | Website:  www.openfoam.com                      |
|    \\/     M anipulation  |                                                 |
\*---------------------------------------------------------------------------*/
FoamFile
{
    version     2.0;
    format      ascii;
    arch        "LSB;label=32;scalar=64";
    class       volVectorField;
    location    "3.8e-06";
    object      rhoU_dof0;
}
// * * * * * * * * * * * * * * * * * * * * * * * * * * * * * * * * * * * * * //

dimensions      [0 0 0 0 0 0 0];

internalField   nonuniform List<vector> 
84
(
(0.0734381 0.000110173 1.11964e-19)
(0.0569794 8.72068e-05 -1.10684e-19)
(0.0579899 8.9974e-05 -2.34803e-19)
(0.057951 9.12412e-05 1.20923e-19)
(0.0579537 9.26088e-05 -9.13669e-21)
(0.0579552 9.40161e-05 1.45747e-20)
(0.0579568 9.54668e-05 2.23815e-19)
(0.0581979 9.57665e-05 4.1868e-20)
(0.0760328 -0.000115341 1.15413e-19)
(0.0590379 -9.22836e-05 -1.10035e-19)
(0.0601133 -9.51073e-05 -2.85804e-19)
(0.0601053 -9.65406e-05 2.21082e-20)
(0.0601413 -9.80732e-05 -5.24742e-19)
(0.0601772 -9.96537e-05 9.26112e-20)
(0.0602142 -0.000101286 4.21996e-19)
(0.0604623 -0.000101584 8.62232e-20)
(0.0756173 -0.000107521 -4.98625e-19)
(0.0589565 -9.8296e-05 8.25875e-20)
(0.0598822 -9.4302e-05 1.54867e-19)
(0.0598815 -9.62211e-05 -1.14289e-20)
(0.0599135 -9.77224e-05 -5.16448e-21)
(0.0599457 -9.92924e-05 2.16756e-19)
(0.0599789 -0.000100913 -1.77438e-19)
(0.0602263 -0.00010121 -2.15148e-19)
(0.0754084 -0.000110491 -4.85484e-19)
(0.0586396 -9.3224e-05 2.29154e-19)
(0.0596989 -9.59125e-05 -1.58596e-20)
(0.0596852 -9.73727e-05 -4.7001e-19)
(0.059715 -9.89325e-05 4.47813e-19)
(0.0597445 -0.000100541 8.91156e-20)
(0.0599911 -0.000100838 -1.77696e-19)
(0.075261 -0.000116002 -2.83438e-19)
(0.0584184 -9.2683e-05 -8.66079e-20)
(0.059476 -9.55994e-05 5.86002e-21)
(0.0594588 -9.7043e-05 1.78692e-21)
(0.059485 -9.85924e-05 -1.62517e-19)
(0.0595107 -0.00010019 1.25765e-19)
(0.0597566 -0.000100486 2.99592e-19)
(0.074989 -0.00011087 -1.73877e-19)
(0.058202 -8.84729e-05 2.53457e-19)
(0.0592526 -9.12843e-05 -1.65778e-20)
(0.059232 -9.2675e-05 3.05213e-19)
(0.0592546 -9.41684e-05 -2.74387e-19)
(0.0592766 -9.5709e-05 2.36193e-19)
(0.0595218 -9.59929e-05 -5.05818e-19)
(0.0747154 -8.90409e-05 -4.44854e-23)
(0.0579852 -7.10592e-05 2.48639e-19)
(0.0590284 -7.32842e-05 -1.62774e-20)
(0.0590045 -7.43977e-05 -2.0541e-22)
(0.0590234 -7.5591e-05 2.56632e-19)
(0.0590416 -7.68219e-05 3.66852e-20)
(0.0592861 -7.70511e-05 2.5787e-19)
(0.0743685 -6.90797e-05 2.61738e-21)
(0.0578452 -6.50434e-05 1.8242e-21)
(0.0588023 -6.15786e-05 -9.86488e-22)
(0.0587809 -6.29153e-05 -2.11949e-21)
(0.058796 -6.39122e-05 -4.17145e-22)
(0.0588106 -6.49579e-05 8.1974e-22)
(0.0590544 -6.51522e-05 -2.25701e-19)
(0.0741161 -6.50913e-05 6.03955e-19)
(0.0575627 -5.46364e-05 -3.68396e-20)
(0.0585899 -5.62542e-05 -5.17308e-19)
(0.0585596 -5.71108e-05 -1.91164e-19)
(0.0585714 -5.80281e-05 2.8492e-19)
(0.0588145 -5.82038e-05 -1.20003e-20)
(0.0739314 -6.75811e-05 -2.18341e-19)
(0.0573606 -5.37225e-05 1.31502e-20)
(0.0583846 -5.54316e-05 -2.46408e-19)
(0.0583513 -5.62485e-05 2.63947e-19)
(0.0583601 -5.71278e-05 4.48167e-19)
(0.0586024 -5.73029e-05 -3.23777e-20)
(0.0736185 -7.26977e-05 -2.98476e-19)
(0.057144 -6.07752e-05 1.76455e-20)
(0.0581578 -6.24304e-05 -3.17219e-22)
(0.0581211 -6.33692e-05 4.60495e-19)
(0.0581261 -6.43666e-05 4.85438e-19)
(0.0583678 -6.45634e-05 2.48466e-20)
(0.0730986 -7.10254e-06 -1.54335e-20)
(0.0569723 -7.80807e-05 6.17831e-22)
(0.0579364 -7.31839e-05 -1.77586e-23)
(0.0578993 -7.46096e-05 2.87861e-19)
(0.0579007 -7.57477e-05 -1.92639e-20)
(0.0579011 -7.69333e-05 7.87893e-22)
(0.0581421 -7.71711e-05 -2.55145e-19)
)
;

boundaryField
{
    inlet
    {
        type            calculated;
        value           nonuniform List<vector> 0();
    }
    outlet2
    {
        type            calculated;
        value           uniform (0.0741049 0 0);
    }
    outlet1
    {
        type            calculated;
        value           uniform (0.0741049 0 0);
    }
    wall
    {
        type            calculated;
        value           uniform (0.0741049 0 0);
    }
    symmetryBottom
    {
        type            symmetry;
    }
    symmetryZ0
    {
        type            symmetry;
    }
    symmetryZ05
    {
        type            symmetry;
    }
    procBoundary0to1
    {
        type            processor;
        value           uniform (0.0741049 0 0);
    }
}


// ************************************************************************* //
