/*--------------------------------*- C++ -*----------------------------------*\
| =========                 |                                                 |
| \\      /  F ield         | OpenFOAM: The Open Source CFD Toolbox           |
|  \\    /   O peration     | Version:  2412                                  |
|   \\  /    A nd           | Website:  www.openfoam.com                      |
|    \\/     M anipulation  |                                                 |
\*---------------------------------------------------------------------------*/
FoamFile
{
    version     2.0;
    format      ascii;
    arch        "LSB;label=32;scalar=64";
    class       volScalarField;
    location    "4.9e-06";
    object      E_dof0;
}
// * * * * * * * * * * * * * * * * * * * * * * * * * * * * * * * * * * * * * //

dimensions      [0 0 0 0 0 0 0];

internalField   nonuniform List<scalar> 
84
(
99.436
34.7812
46.5093
99.4574
34.8034
46.5295
99.452
34.8006
46.5261
99.452
34.8006
46.5261
99.452
34.8006
46.5261
99.452
34.8006
46.5261
99.452
34.8006
46.5261
99.452
34.8006
46.5261
99.452
34.8006
46.5261
99.452
34.8006
46.5261
99.452
34.8006
46.5261
99.4522
34.7956
46.5231
74.7062
72.1493
72.6445
78.2158
75.3825
75.9077
77.8492
75.0446
75.5637
77.484
74.7082
74.9041
72.0063
77.1199
74.3728
74.5619
74.9219
76.758
74.0392
74.2215
74.5804
76.4044
73.713
73.8887
74.2464
76.0583
73.3936
73.563
73.9179
75.7417
73.099
73.2627
73.2728
72.1308
75.2951
72.6935
72.8485
72.8526
73.2103
74.9577
72.3816
72.5304
72.5308
72.9696
74.6157
72.0657
72.2083
72.5595
)
;

boundaryField
{
    inlet
    {
        type            calculated;
        value           uniform 99.4306;
    }
    outlet2
    {
        type            calculated;
        value           uniform 99.4306;
    }
    outlet1
    {
        type            calculated;
        value           nonuniform List<scalar> 0();
    }
    wall
    {
        type            calculated;
        value           uniform 99.4306;
    }
    symmetryBottom
    {
        type            symmetry;
    }
    symmetryZ0
    {
        type            symmetry;
    }
    symmetryZ05
    {
        type            symmetry;
    }
    procBoundary1to0
    {
        type            processor;
        value           uniform 99.4306;
    }
}


// ************************************************************************* //
