/*--------------------------------*- C++ -*----------------------------------*\
| =========                 |                                                 |
| \\      /  F ield         | OpenFOAM: The Open Source CFD Toolbox           |
|  \\    /   O peration     | Version:  2412                                  |
|   \\  /    A nd           | Website:  www.openfoam.com                      |
|    \\/     M anipulation  |                                                 |
\*---------------------------------------------------------------------------*/
FoamFile
{
    version     2.0;
    format      ascii;
    arch        "LSB;label=32;scalar=64";
    class       volScalarField;
    location    "4.9e-06";
    object      rho;
}
// * * * * * * * * * * * * * * * * * * * * * * * * * * * * * * * * * * * * * //

dimensions      [0 0 0 0 0 0 0];

internalField   nonuniform List<scalar> 
84
(
2.811e-05
1.00075e-05
1.3256e-05
2.81161e-05
1.00139e-05
1.32617e-05
2.81145e-05
1.00131e-05
1.32608e-05
2.81145e-05
1.00131e-05
1.32608e-05
2.81145e-05
1.00131e-05
1.32608e-05
2.81145e-05
1.00131e-05
1.32608e-05
2.81145e-05
1.00131e-05
1.32608e-05
2.81145e-05
1.00131e-05
1.32608e-05
2.81145e-05
1.00131e-05
1.32608e-05
2.81145e-05
1.00131e-05
1.32608e-05
2.81145e-05
1.00131e-05
1.32608e-05
2.81146e-05
1.00117e-05
1.32599e-05
2.11926e-05
2.04829e-05
2.06208e-05
2.21657e-05
2.13802e-05
2.15263e-05
2.2063e-05
2.12855e-05
2.14299e-05
2.19608e-05
2.11912e-05
2.12451e-05
2.04334e-05
2.18589e-05
2.10971e-05
2.11492e-05
2.125e-05
2.1757e-05
2.10032e-05
2.10533e-05
2.11538e-05
2.16553e-05
2.09094e-05
2.09577e-05
2.10579e-05
2.15551e-05
2.08171e-05
2.08634e-05
2.09629e-05
2.14509e-05
2.07211e-05
2.07654e-05
2.0768e-05
2.04709e-05
2.13585e-05
2.06357e-05
2.06785e-05
2.06798e-05
2.07803e-05
2.12564e-05
2.05415e-05
2.05824e-05
2.05826e-05
2.07054e-05
2.11588e-05
2.04513e-05
2.04904e-05
2.05888e-05
)
;

boundaryField
{
    inlet
    {
        type            calculated;
        value           uniform 0;
    }
    outlet2
    {
        type            calculated;
        value           uniform 0;
    }
    outlet1
    {
        type            calculated;
        value           nonuniform List<scalar> 0();
    }
    wall
    {
        type            calculated;
        value           uniform 0;
    }
    symmetryBottom
    {
        type            symmetry;
    }
    symmetryZ0
    {
        type            symmetry;
    }
    symmetryZ05
    {
        type            symmetry;
    }
    procBoundary1to0
    {
        type            processor;
        value           uniform 0;
    }
}


// ************************************************************************* //
