/*--------------------------------*- C++ -*----------------------------------*\
| =========                 |                                                 |
| \\      /  F ield         | OpenFOAM: The Open Source CFD Toolbox           |
|  \\    /   O peration     | Version:  2412                                  |
|   \\  /    A nd           | Website:  www.openfoam.com                      |
|    \\/     M anipulation  |                                                 |
\*---------------------------------------------------------------------------*/
FoamFile
{
    version     2.0;
    format      ascii;
    arch        "LSB;label=32;scalar=64";
    class       volScalarField;
    location    "2.8e-06";
    object      rho_dof0;
}
// * * * * * * * * * * * * * * * * * * * * * * * * * * * * * * * * * * * * * //

dimensions      [0 0 0 0 0 0 0];

internalField   nonuniform List<scalar> 
84
(
2.8109e-05
1.69092e-05
1.8074e-05
2.81112e-05
1.69129e-05
1.80774e-05
2.81106e-05
1.69125e-05
1.8077e-05
2.81106e-05
1.69125e-05
1.8077e-05
2.81106e-05
1.69125e-05
1.8077e-05
2.81106e-05
1.69125e-05
1.8077e-05
2.81106e-05
1.69125e-05
1.8077e-05
2.81106e-05
1.69125e-05
1.8077e-05
2.81106e-05
1.69125e-05
1.8077e-05
2.81106e-05
1.69125e-05
1.8077e-05
2.81106e-05
1.69125e-05
1.8077e-05
2.81107e-05
1.69116e-05
1.80763e-05
2.37366e-05
2.34679e-05
2.35383e-05
2.43453e-05
2.40555e-05
2.41279e-05
2.4282e-05
2.39944e-05
2.40663e-05
2.42189e-05
2.39334e-05
2.39491e-05
2.34392e-05
2.41558e-05
2.38725e-05
2.38872e-05
2.39512e-05
2.40928e-05
2.38117e-05
2.38254e-05
2.38892e-05
2.40299e-05
2.3751e-05
2.37637e-05
2.38275e-05
2.39675e-05
2.36907e-05
2.37025e-05
2.3766e-05
2.39038e-05
2.36293e-05
2.36401e-05
2.36426e-05
2.34524e-05
2.38441e-05
2.35716e-05
2.35815e-05
2.35832e-05
2.3647e-05
2.37811e-05
2.35107e-05
2.35197e-05
2.35205e-05
2.35919e-05
2.37194e-05
2.34511e-05
2.34592e-05
2.35222e-05
)
;

boundaryField
{
    inlet
    {
        type            calculated;
        value           uniform 2.81085e-05;
    }
    outlet2
    {
        type            calculated;
        value           uniform 2.81085e-05;
    }
    outlet1
    {
        type            calculated;
        value           nonuniform List<scalar> 0();
    }
    wall
    {
        type            calculated;
        value           uniform 2.81085e-05;
    }
    symmetryBottom
    {
        type            symmetry;
    }
    symmetryZ0
    {
        type            symmetry;
    }
    symmetryZ05
    {
        type            symmetry;
    }
    procBoundary1to0
    {
        type            processor;
        value           uniform 2.81085e-05;
    }
}


// ************************************************************************* //
