/*--------------------------------*- C++ -*----------------------------------*\
| =========                 |                                                 |
| \\      /  F ield         | OpenFOAM: The Open Source CFD Toolbox           |
|  \\    /   O peration     | Version:  2412                                  |
|   \\  /    A nd           | Website:  www.openfoam.com                      |
|    \\/     M anipulation  |                                                 |
\*---------------------------------------------------------------------------*/
FoamFile
{
    version     2.0;
    format      ascii;
    arch        "LSB;label=32;scalar=64";
    class       volVectorField;
    location    "2.8e-06";
    object      rhoU;
}
// * * * * * * * * * * * * * * * * * * * * * * * * * * * * * * * * * * * * * //

dimensions      [0 0 0 0 0 0 0];

internalField   nonuniform List<vector> 
84
(
(0.0741063 -1.36665e-07 0)
(0.0444205 -3.43297e-07 0)
(0.0475256 -2.96766e-07 -8.43103e-20)
(0.074112 -7.03453e-05 0)
(0.0444303 -4.84999e-05 0)
(0.0475344 -5.09887e-05 -8.11867e-20)
(0.0741105 -7.0202e-05 0)
(0.0444292 -4.83975e-05 0)
(0.0475333 -5.08815e-05 1.13973e-19)
(0.0741105 -7.0202e-05 0)
(0.0444292 -4.83975e-05 0)
(0.0475333 -5.08815e-05 -1.48345e-19)
(0.0741105 -7.0202e-05 0)
(0.0444292 -4.83975e-05 0)
(0.0475333 -5.08815e-05 -2.49815e-19)
(0.0741105 -7.0202e-05 0)
(0.0444292 -4.83975e-05 0)
(0.0475333 -5.08815e-05 1.43638e-19)
(0.0741105 -7.0202e-05 0)
(0.0444292 -4.83975e-05 0)
(0.0475333 -5.08815e-05 -1.82693e-19)
(0.0741105 -7.0202e-05 0)
(0.0444292 -4.83975e-05 0)
(0.0475333 -5.08815e-05 -2.1859e-19)
(0.0741105 -7.0202e-05 0)
(0.0444292 -4.83975e-05 0)
(0.0475333 -5.08815e-05 8.27437e-20)
(0.0741105 -7.0202e-05 0)
(0.0444292 -4.83975e-05 0)
(0.0475333 -5.08815e-05 -1.81144e-19)
(0.0741105 -7.02021e-05 0)
(0.0444292 -4.83966e-05 0)
(0.0475333 -5.08808e-05 -4.46557e-19)
(0.0741106 -7.02118e-05 0)
(0.0444268 -4.81597e-05 0)
(0.0475314 -5.0695e-05 0)
(0.0625062 6.95336e-05 3.79959e-21)
(0.0617906 6.70983e-05 7.37789e-20)
(0.0619774 6.73327e-05 7.38685e-21)
(0.0641325 -6.95218e-05 3.6628e-21)
(0.06336 -6.97205e-05 7.90608e-20)
(0.0635523 -6.98726e-05 -9.43234e-22)
(0.0639648 -6.93574e-05 -5.7091e-21)
(0.063198 -6.95556e-05 -3.6405e-20)
(0.063389 -6.96754e-05 -1.61869e-19)
(0.0637973 -6.91901e-05 7.33421e-21)
(0.0630364 -6.93913e-05 -1.42018e-21)
(0.0630783 -7.04192e-05 5.27752e-23)
(0.0617271 2.23769e-06 1.13957e-19)
(0.0636302 -6.90312e-05 -2.82074e-20)
(0.0628751 -6.92349e-05 9.20667e-23)
(0.0629143 -7.02582e-05 -1.2049e-21)
(0.0630839 -7.03911e-05 1.17612e-19)
(0.0634629 -6.5602e-05 -7.17045e-21)
(0.0627136 -6.59304e-05 -7.89299e-20)
(0.0627502 -6.69067e-05 1.24667e-21)
(0.0629194 -6.70342e-05 7.72664e-20)
(0.063295 -5.22501e-05 8.38239e-21)
(0.0625515 -5.30251e-05 -4.60949e-22)
(0.0625856 -5.37925e-05 -3.91376e-22)
(0.0627544 -5.38959e-05 -6.33882e-22)
(0.0631292 -4.37141e-05 1.10017e-20)
(0.0623914 -4.47731e-05 -7.65995e-20)
(0.0624229 -4.54107e-05 8.39454e-20)
(0.0625911 -4.54751e-05 7.58656e-22)
(0.0629601 -3.90901e-05 -3.7708e-21)
(0.0622279 -4.02953e-05 -1.1474e-19)
(0.0622568 -4.08543e-05 -1.11556e-19)
(0.0622634 -4.14494e-05 1.26924e-19)
(0.0617615 2.38437e-06 7.45693e-19)
(0.062803 -3.88316e-05 9.22382e-21)
(0.0620771 -4.00378e-05 -1.15396e-19)
(0.0621036 -4.05825e-05 7.89798e-20)
(0.062108 -4.11641e-05 1.8832e-19)
(0.0622771 -4.13581e-05 1.12093e-19)
(0.0626363 -4.39644e-05 2.24499e-20)
(0.061916 -4.49886e-05 -6.14715e-22)
(0.0619399 -4.56137e-05 1.60528e-22)
(0.0619422 -4.62928e-05 -7.34597e-23)
(0.0621312 -4.78989e-05 -1.1706e-19)
(0.0624734 -5.31724e-05 8.53617e-23)
(0.0617585 -5.38585e-05 1.11364e-19)
(0.06178 -5.46209e-05 -4.9472e-21)
(0.0619472 -5.47155e-05 -1.99007e-19)
)
;

boundaryField
{
    inlet
    {
        type            calculated;
        value           uniform (0 0 0);
    }
    outlet2
    {
        type            calculated;
        value           uniform (0 0 0);
    }
    outlet1
    {
        type            calculated;
        value           nonuniform List<vector> 0();
    }
    wall
    {
        type            calculated;
        value           uniform (0 0 0);
    }
    symmetryBottom
    {
        type            symmetry;
    }
    symmetryZ0
    {
        type            symmetry;
    }
    symmetryZ05
    {
        type            symmetry;
    }
    procBoundary1to0
    {
        type            processor;
        value           uniform (0 0 0);
    }
}


// ************************************************************************* //
