/*--------------------------------*- C++ -*----------------------------------*\
| =========                 |                                                 |
| \\      /  F ield         | OpenFOAM: The Open Source CFD Toolbox           |
|  \\    /   O peration     | Version:  2412                                  |
|   \\  /    A nd           | Website:  www.openfoam.com                      |
|    \\/     M anipulation  |                                                 |
\*---------------------------------------------------------------------------*/
FoamFile
{
    version     2.0;
    format      ascii;
    arch        "LSB;label=32;scalar=64";
    class       volScalarField;
    location    "2.8e-06";
    object      T;
}
// * * * * * * * * * * * * * * * * * * * * * * * * * * * * * * * * * * * * * //

dimensions      [0 0 0 0 0 0 0];

internalField   nonuniform List<scalar> 
84
(
200.003
199.92
200.019
199.993
199.9
200
199.99
199.897
199.997
199.99
199.897
199.997
199.99
199.897
199.997
199.99
199.897
199.997
199.99
199.897
199.997
199.99
199.897
199.997
199.99
199.897
199.997
199.99
199.897
199.997
199.99
199.897
199.997
199.991
199.89
199.992
201.712
201.665
201.666
200.008
199.998
199.999
200.008
199.998
199.999
200.008
199.998
199.999
200.006
200.009
199.999
200
200
200.315
200.298
200.303
200.303
201.535
201.491
201.514
201.513
202.682
202.612
202.653
202.651
207.22
207.037
207.15
207.258
199.694
197.143
197.194
197.151
197.109
197.061
199.326
199.332
199.322
199.313
199.336
199.722
199.72
199.716
199.716
)
;

boundaryField
{
    inlet
    {
        type            calculated;
        value           uniform 0;
    }
    outlet2
    {
        type            calculated;
        value           uniform 0;
    }
    outlet1
    {
        type            calculated;
        value           nonuniform List<scalar> 0();
    }
    wall
    {
        type            calculated;
        value           uniform 0;
    }
    symmetryBottom
    {
        type            symmetry;
    }
    symmetryZ0
    {
        type            symmetry;
    }
    symmetryZ05
    {
        type            symmetry;
    }
    procBoundary1to0
    {
        type            processor;
        value           uniform 0;
    }
}


// ************************************************************************* //
