/*--------------------------------*- C++ -*----------------------------------*\
| =========                 |                                                 |
| \\      /  F ield         | OpenFOAM: The Open Source CFD Toolbox           |
|  \\    /   O peration     | Version:  2412                                  |
|   \\  /    A nd           | Website:  www.openfoam.com                      |
|    \\/     M anipulation  |                                                 |
\*---------------------------------------------------------------------------*/
FoamFile
{
    version     2.0;
    format      ascii;
    arch        "LSB;label=32;scalar=64";
    class       volScalarField;
    location    "1.5e-06";
    object      rho_dof0;
}
// * * * * * * * * * * * * * * * * * * * * * * * * * * * * * * * * * * * * * //

dimensions      [0 0 0 0 0 0 0];

internalField   nonuniform List<scalar> 
84
(
2.81086e-05
2.17986e-05
2.21452e-05
2.81093e-05
2.18004e-05
2.21468e-05
2.81091e-05
2.18002e-05
2.21467e-05
2.81091e-05
2.18002e-05
2.21467e-05
2.81091e-05
2.18002e-05
2.21467e-05
2.81091e-05
2.18002e-05
2.21467e-05
2.81091e-05
2.18002e-05
2.21467e-05
2.81091e-05
2.18002e-05
2.21467e-05
2.81091e-05
2.18002e-05
2.21467e-05
2.81091e-05
2.18002e-05
2.21467e-05
2.81091e-05
2.18002e-05
2.21467e-05
2.81091e-05
2.17997e-05
2.21462e-05
2.56018e-05
2.55194e-05
2.55562e-05
2.59474e-05
2.58615e-05
2.58987e-05
2.59118e-05
2.58262e-05
2.58634e-05
2.58762e-05
2.5791e-05
2.57963e-05
2.55065e-05
2.58406e-05
2.57558e-05
2.57606e-05
2.57969e-05
2.58051e-05
2.57206e-05
2.57249e-05
2.57612e-05
2.57697e-05
2.56855e-05
2.56893e-05
2.57256e-05
2.57343e-05
2.56506e-05
2.56538e-05
2.569e-05
2.56987e-05
2.56153e-05
2.5618e-05
2.56195e-05
2.55102e-05
2.56641e-05
2.5581e-05
2.55833e-05
2.55843e-05
2.56208e-05
2.56286e-05
2.55459e-05
2.55476e-05
2.55482e-05
2.55867e-05
2.55934e-05
2.5511e-05
2.55123e-05
2.55483e-05
)
;

boundaryField
{
    inlet
    {
        type            calculated;
        value           uniform 2.81085e-05;
    }
    outlet2
    {
        type            calculated;
        value           uniform 2.81085e-05;
    }
    outlet1
    {
        type            calculated;
        value           nonuniform List<scalar> 0();
    }
    wall
    {
        type            calculated;
        value           uniform 2.81085e-05;
    }
    symmetryBottom
    {
        type            symmetry;
    }
    symmetryZ0
    {
        type            symmetry;
    }
    symmetryZ05
    {
        type            symmetry;
    }
    procBoundary1to0
    {
        type            processor;
        value           uniform 2.81085e-05;
    }
}


// ************************************************************************* //
