/*--------------------------------*- C++ -*----------------------------------*\
| =========                 |                                                 |
| \\      /  F ield         | OpenFOAM: The Open Source CFD Toolbox           |
|  \\    /   O peration     | Version:  2412                                  |
|   \\  /    A nd           | Website:  www.openfoam.com                      |
|    \\/     M anipulation  |                                                 |
\*---------------------------------------------------------------------------*/
FoamFile
{
    version     2.0;
    format      ascii;
    arch        "LSB;label=32;scalar=64";
    class       volScalarField;
    location    "1.5e-06";
    object      T;
}
// * * * * * * * * * * * * * * * * * * * * * * * * * * * * * * * * * * * * * //

dimensions      [0 0 0 0 0 0 0];

internalField   nonuniform List<scalar> 
84
(
200.001
199.987
200.004
199.998
199.98
199.998
199.997
199.979
199.997
199.997
199.979
199.997
199.997
199.979
199.997
199.997
199.979
199.997
199.997
199.979
199.997
199.997
199.979
199.997
199.997
199.979
199.997
199.997
199.979
199.997
199.997
199.979
199.997
199.997
199.976
199.994
200.9
200.892
200.892
200.003
200
200
200.003
200
200
200.002
200
200
200.002
200.003
200
200
200
200.174
200.17
200.173
200.173
200.809
200.801
200.812
200.812
201.405
201.393
201.413
201.413
203.708
203.68
203.735
203.789
199.918
198.506
198.512
198.49
198.468
198.456
199.647
199.646
199.641
199.636
199.642
199.854
199.852
199.85
199.85
)
;

boundaryField
{
    inlet
    {
        type            calculated;
        value           uniform 0;
    }
    outlet2
    {
        type            calculated;
        value           uniform 0;
    }
    outlet1
    {
        type            calculated;
        value           nonuniform List<scalar> 0();
    }
    wall
    {
        type            calculated;
        value           uniform 0;
    }
    symmetryBottom
    {
        type            symmetry;
    }
    symmetryZ0
    {
        type            symmetry;
    }
    symmetryZ05
    {
        type            symmetry;
    }
    procBoundary1to0
    {
        type            processor;
        value           uniform 0;
    }
}


// ************************************************************************* //
