/*--------------------------------*- C++ -*----------------------------------*\
| =========                 |                                                 |
| \\      /  F ield         | OpenFOAM: The Open Source CFD Toolbox           |
|  \\    /   O peration     | Version:  2412                                  |
|   \\  /    A nd           | Website:  www.openfoam.com                      |
|    \\/     M anipulation  |                                                 |
\*---------------------------------------------------------------------------*/
FoamFile
{
    version     2.0;
    format      ascii;
    arch        "LSB;label=32;scalar=64";
    class       volVectorField;
    location    "1.5e-06";
    object      U;
}
// * * * * * * * * * * * * * * * * * * * * * * * * * * * * * * * * * * * * * //

dimensions      [0 0 0 0 0 0 0];

internalField   nonuniform List<vector> 
84
(
(2636.39 -0.00134974 0)
(2632.06 -0.00791931 0)
(2632.61 -0.00715125 -2.11505e-15)
(2636.39 -1.41367 0)
(2632.07 -1.52398 0)
(2632.61 -1.51706 -2.11489e-15)
(2636.39 -1.41213 0)
(2632.07 -1.52231 0)
(2632.61 -1.51539 3.38385e-15)
(2636.39 -1.41213 0)
(2632.07 -1.52231 0)
(2632.61 -1.51539 -4.58252e-15)
(2636.39 -1.41213 0)
(2632.07 -1.52231 0)
(2632.61 -1.51539 -7.40226e-15)
(2636.39 -1.41213 0)
(2632.07 -1.52231 0)
(2632.61 -1.51539 4.4413e-15)
(2636.39 -1.41213 0)
(2632.07 -1.52231 0)
(2632.61 -1.51539 -5.28749e-15)
(2636.39 -1.41213 0)
(2632.07 -1.52231 0)
(2632.61 -1.51539 -6.20382e-15)
(2636.39 -1.41213 0)
(2632.07 -1.52231 0)
(2632.61 -1.51539 2.18536e-15)
(2636.39 -1.41213 0)
(2632.07 -1.52231 0)
(2632.61 -1.51539 -5.28761e-15)
(2636.39 -1.41213 0)
(2632.07 -1.5223 0)
(2632.61 -1.51538 -1.31832e-14)
(2636.39 -1.41232 0)
(2632.06 -1.51613 0)
(2632.61 -1.50997 0)
(2634.67 1.55694 4.47235e-17)
(2634.57 1.54578 1.65334e-15)
(2634.59 1.54569 1.61622e-16)
(2635.17 -1.53031 4.0649e-17)
(2635.07 -1.55251 1.73427e-15)
(2635.09 -1.55178 -9.61549e-18)
(2635.15 -1.53061 -6.88437e-17)
(2635.05 -1.55279 -7.95706e-16)
(2635.07 -1.55172 -3.39896e-15)
(2635.13 -1.53089 9.01441e-17)
(2635.02 -1.55306 -2.76592e-17)
(2635.03 -1.57509 5.6173e-19)
(2634.85 0.024333 2.44212e-15)
(2635.11 -1.53121 -8.20707e-16)
(2635 -1.55338 -6.63703e-18)
(2635.01 -1.57543 -2.64755e-17)
(2635.03 -1.57469 2.37433e-15)
(2635.08 -1.45441 -8.76586e-17)
(2634.97 -1.47719 -1.74121e-15)
(2634.98 -1.49821 -9.47736e-18)
(2635 -1.49753 1.59969e-15)
(2635.03 -1.1666 9.83721e-17)
(2634.92 -1.19123 -3.64768e-18)
(2634.93 -1.20809 -1.16182e-17)
(2634.95 -1.20755 -1.36721e-17)
(2635 -0.979754 1.39807e-16)
(2634.89 -1.00561 -1.63825e-15)
(2634.9 -1.01981 1.82214e-15)
(2634.92 -1.01912 1.29219e-17)
(2634.97 -0.885675 -4.52408e-17)
(2634.87 -0.912061 -2.58468e-15)
(2634.87 -0.924843 -2.57181e-15)
(2634.87 -0.938194 2.73924e-15)
(2634.84 0.0262588 1.79503e-14)
(2634.97 -0.888321 1.17233e-16)
(2634.87 -0.91461 -2.59877e-15)
(2634.87 -0.927322 1.73715e-15)
(2634.87 -0.94061 4.22431e-15)
(2634.9 -0.94145 2.79156e-15)
(2634.96 -1.00162 2.86446e-16)
(2634.86 -1.02714 -3.53529e-18)
(2634.86 -1.04153 3.36337e-18)
(2634.86 -1.05675 -1.24854e-19)
(2634.88 -1.07256 -2.52416e-15)
(2634.95 -1.20987 1.91184e-18)
(2634.85 -1.23377 2.50494e-15)
(2634.85 -1.25115 -5.7139e-17)
(2634.87 -1.2505 -4.3086e-15)
)
;

boundaryField
{
    inlet
    {
        type            calculated;
        value           uniform (0 0 0);
    }
    outlet2
    {
        type            calculated;
        value           uniform (0 0 0);
    }
    outlet1
    {
        type            calculated;
        value           nonuniform List<vector> 0();
    }
    wall
    {
        type            calculated;
        value           uniform (0 0 0);
    }
    symmetryBottom
    {
        type            symmetry;
    }
    symmetryZ0
    {
        type            symmetry;
    }
    symmetryZ05
    {
        type            symmetry;
    }
    procBoundary1to0
    {
        type            processor;
        value           uniform (0 0 0);
    }
}


// ************************************************************************* //
