/*--------------------------------*- C++ -*----------------------------------*\
| =========                 |                                                 |
| \\      /  F ield         | OpenFOAM: The Open Source CFD Toolbox           |
|  \\    /   O peration     | Version:  2412                                  |
|   \\  /    A nd           | Website:  www.openfoam.com                      |
|    \\/     M anipulation  |                                                 |
\*---------------------------------------------------------------------------*/
FoamFile
{
    version     2.0;
    format      ascii;
    arch        "LSB;label=32;scalar=64";
    class       volScalarField;
    location    "7.5e-06";
    object      rho_dof0;
}
// * * * * * * * * * * * * * * * * * * * * * * * * * * * * * * * * * * * * * //

dimensions      [0 0 0 0 0 0 0];

internalField   nonuniform List<scalar> 
84
(
2.81117e-05
2.91723e-06
9.62773e-06
2.81242e-05
2.92452e-06
9.63563e-06
2.8121e-05
2.92365e-06
9.63406e-06
2.8121e-05
2.92365e-06
9.63406e-06
2.8121e-05
2.92365e-06
9.63406e-06
2.8121e-05
2.92365e-06
9.63406e-06
2.8121e-05
2.92365e-06
9.63406e-06
2.8121e-05
2.92365e-06
9.63406e-06
2.8121e-05
2.92365e-06
9.63406e-06
2.8121e-05
2.92365e-06
9.63406e-06
2.8121e-05
2.92363e-06
9.63405e-06
2.81211e-05
2.92181e-06
9.63333e-06
1.86264e-05
1.72696e-05
1.75236e-05
1.99644e-05
1.84253e-05
1.8704e-05
1.98208e-05
1.83011e-05
1.85753e-05
1.9678e-05
1.81778e-05
1.83267e-05
1.72175e-05
1.95358e-05
1.8055e-05
1.82002e-05
1.83323e-05
1.93937e-05
1.79323e-05
1.80737e-05
1.82052e-05
1.92519e-05
1.781e-05
1.79476e-05
1.80786e-05
1.91135e-05
1.76905e-05
1.78245e-05
1.79538e-05
1.89659e-05
1.75633e-05
1.76933e-05
1.76909e-05
1.7296e-05
1.88444e-05
1.74578e-05
1.75848e-05
1.7581e-05
1.77164e-05
1.87016e-05
1.73344e-05
1.74577e-05
1.74527e-05
1.76366e-05
1.85689e-05
1.72195e-05
1.73394e-05
1.74669e-05
)
;

boundaryField
{
    inlet
    {
        type            calculated;
        value           uniform 2.81085e-05;
    }
    outlet2
    {
        type            calculated;
        value           uniform 2.81085e-05;
    }
    outlet1
    {
        type            calculated;
        value           nonuniform List<scalar> 0();
    }
    wall
    {
        type            calculated;
        value           uniform 2.81085e-05;
    }
    symmetryBottom
    {
        type            symmetry;
    }
    symmetryZ0
    {
        type            symmetry;
    }
    symmetryZ05
    {
        type            symmetry;
    }
    procBoundary1to0
    {
        type            processor;
        value           uniform 2.81085e-05;
    }
}


// ************************************************************************* //
