/*--------------------------------*- C++ -*----------------------------------*\
| =========                 |                                                 |
| \\      /  F ield         | OpenFOAM: The Open Source CFD Toolbox           |
|  \\    /   O peration     | Version:  2412                                  |
|   \\  /    A nd           | Website:  www.openfoam.com                      |
|    \\/     M anipulation  |                                                 |
\*---------------------------------------------------------------------------*/
FoamFile
{
    version     2.0;
    format      ascii;
    arch        "LSB;label=32;scalar=64";
    class       volVectorField;
    location    "7.5e-06";
    object      U;
}
// * * * * * * * * * * * * * * * * * * * * * * * * * * * * * * * * * * * * * //

dimensions      [0 0 0 0 0 0 0];

internalField   nonuniform List<vector> 
84
(
(2636.39 -0.0293484 0)
(2535.76 -0.235072 0)
(2623.8 -0.062775 -1.17593e-14)
(2636.39 -5.57819 0)
(2535.92 -10.8877 0)
(2623.8 -7.32135 -1.18295e-14)
(2636.39 -5.55079 0)
(2535.91 -10.8238 0)
(2623.8 -7.28253 1.58002e-14)
(2636.39 -5.55079 0)
(2535.91 -10.8238 0)
(2623.8 -7.28253 -2.21428e-14)
(2636.39 -5.55079 0)
(2535.91 -10.8238 0)
(2623.8 -7.28253 -3.37967e-14)
(2636.39 -5.55079 0)
(2535.91 -10.8238 0)
(2623.8 -7.28253 2.17973e-14)
(2636.39 -5.55079 0)
(2535.91 -10.8238 0)
(2623.8 -7.28253 -2.53024e-14)
(2636.39 -5.55079 0)
(2535.91 -10.8238 0)
(2623.8 -7.28253 -2.85306e-14)
(2636.39 -5.55079 0)
(2535.91 -10.8238 0)
(2623.8 -7.28253 1.18267e-14)
(2636.39 -5.55079 0)
(2535.91 -10.8238 0)
(2623.8 -7.28253 -2.53964e-14)
(2636.39 -5.55079 0)
(2535.91 -10.8221 0)
(2623.8 -7.2823 -6.67156e-14)
(2636.39 -5.55143 0)
(2535.86 -10.6699 0)
(2623.8 -7.26366 0)
(2629.11 7.92073 1.03324e-15)
(2626.98 7.37254 9.14391e-15)
(2627.44 7.42095 9.69226e-16)
(2631.79 -7.64457 9.3159e-16)
(2629.47 -7.76612 9.62116e-15)
(2629.96 -7.74737 -3.07229e-16)
(2631.67 -7.64809 -1.30463e-15)
(2629.37 -7.76735 -4.64705e-15)
(2629.84 -7.73814 -1.3829e-14)
(2631.55 -7.64976 1.72209e-15)
(2629.26 -7.76877 -3.13064e-16)
(2629.62 -7.87602 2.66616e-17)
(2628.5 0.784238 1.23029e-14)
(2631.43 -7.65448 -1.69243e-15)
(2629.15 -7.77294 7.62771e-17)
(2629.51 -7.88039 -1.45937e-16)
(2629.62 -7.86485 1.16256e-14)
(2631.27 -7.39082 -1.71854e-15)
(2629.01 -7.5309 -9.33824e-15)
(2629.36 -7.63545 8.93551e-16)
(2629.47 -7.6205 1.04776e-14)
(2630.99 -5.83634 2.01531e-15)
(2628.72 -6.07487 -2.81829e-16)
(2629.07 -6.1468 2.99937e-17)
(2629.17 -6.13547 -8.26195e-17)
(2630.8 -4.90786 2.44605e-15)
(2628.51 -5.20296 -9.67454e-15)
(2628.86 -5.25729 1.08454e-14)
(2628.96 -5.23967 1.76844e-16)
(2630.55 -4.27461 -9.87208e-16)
(2628.14 -4.60993 -1.22761e-14)
(2628.51 -4.64881 -1.15462e-14)
(2628.47 -4.7179 1.37679e-14)
(2628.47 0.819771 8.02696e-14)
(2630.76 -4.12732 2.15015e-15)
(2628.64 -4.47444 -1.25884e-14)
(2628.96 -4.50675 1.06899e-14)
(2628.94 -4.57124 1.69657e-14)
(2629.08 -4.60782 1.19103e-14)
(2630.64 -4.80094 5.49937e-15)
(2628.48 -5.10032 -5.13542e-16)
(2628.8 -5.14861 4.84167e-17)
(2628.78 -5.23145 -3.66137e-17)
(2628.95 -5.73806 -1.23592e-14)
(2630.57 -5.8768 9.7717e-18)
(2628.4 -6.0982 1.26117e-14)
(2628.72 -6.16924 -1.70712e-15)
(2628.84 -6.15389 -1.73502e-14)
)
;

boundaryField
{
    inlet
    {
        type            calculated;
        value           uniform (0 0 0);
    }
    outlet2
    {
        type            calculated;
        value           uniform (0 0 0);
    }
    outlet1
    {
        type            calculated;
        value           nonuniform List<vector> 0();
    }
    wall
    {
        type            calculated;
        value           uniform (0 0 0);
    }
    symmetryBottom
    {
        type            symmetry;
    }
    symmetryZ0
    {
        type            symmetry;
    }
    symmetryZ05
    {
        type            symmetry;
    }
    procBoundary1to0
    {
        type            processor;
        value           uniform (0 0 0);
    }
}


// ************************************************************************* //
