/*--------------------------------*- C++ -*----------------------------------*\
| =========                 |                                                 |
| \\      /  F ield         | OpenFOAM: The Open Source CFD Toolbox           |
|  \\    /   O peration     | Version:  2412                                  |
|   \\  /    A nd           | Website:  www.openfoam.com                      |
|    \\/     M anipulation  |                                                 |
\*---------------------------------------------------------------------------*/
FoamFile
{
    version     2.0;
    format      ascii;
    arch        "LSB;label=32;scalar=64";
    class       volScalarField;
    location    "3.8e-06";
    object      rho_dof0;
}
// * * * * * * * * * * * * * * * * * * * * * * * * * * * * * * * * * * * * * //

dimensions      [0 0 0 0 0 0 0];

internalField   nonuniform List<scalar> 
84
(
2.81094e-05
1.34785e-05
1.55344e-05
2.81133e-05
1.34836e-05
1.5539e-05
2.81123e-05
1.3483e-05
1.55383e-05
2.81123e-05
1.3483e-05
1.55383e-05
2.81123e-05
1.3483e-05
1.55383e-05
2.81123e-05
1.3483e-05
1.55383e-05
2.81123e-05
1.3483e-05
1.55383e-05
2.81123e-05
1.3483e-05
1.55383e-05
2.81123e-05
1.3483e-05
1.55383e-05
2.81123e-05
1.3483e-05
1.55383e-05
2.81123e-05
1.3483e-05
1.55383e-05
2.81124e-05
1.34818e-05
1.55375e-05
2.24614e-05
2.19989e-05
2.20989e-05
2.32523e-05
2.27465e-05
2.28508e-05
2.31695e-05
2.26682e-05
2.27715e-05
2.3087e-05
2.25901e-05
2.26201e-05
2.19589e-05
2.30046e-05
2.25122e-05
2.25409e-05
2.26237e-05
2.29223e-05
2.24344e-05
2.24617e-05
2.25443e-05
2.28401e-05
2.23568e-05
2.23827e-05
2.2465e-05
2.27589e-05
2.228e-05
2.23046e-05
2.23864e-05
2.26753e-05
2.22009e-05
2.22241e-05
2.22269e-05
2.19824e-05
2.25988e-05
2.21286e-05
2.21506e-05
2.21524e-05
2.22347e-05
2.25164e-05
2.20507e-05
2.20713e-05
2.20721e-05
2.21682e-05
2.24367e-05
2.19752e-05
2.19945e-05
2.20757e-05
)
;

boundaryField
{
    inlet
    {
        type            calculated;
        value           uniform 2.81085e-05;
    }
    outlet2
    {
        type            calculated;
        value           uniform 2.81085e-05;
    }
    outlet1
    {
        type            calculated;
        value           nonuniform List<scalar> 0();
    }
    wall
    {
        type            calculated;
        value           uniform 2.81085e-05;
    }
    symmetryBottom
    {
        type            symmetry;
    }
    symmetryZ0
    {
        type            symmetry;
    }
    symmetryZ05
    {
        type            symmetry;
    }
    procBoundary1to0
    {
        type            processor;
        value           uniform 2.81085e-05;
    }
}


// ************************************************************************* //
