/*--------------------------------*- C++ -*----------------------------------*\
| =========                 |                                                 |
| \\      /  F ield         | OpenFOAM: The Open Source CFD Toolbox           |
|  \\    /   O peration     | Version:  2412                                  |
|   \\  /    A nd           | Website:  www.openfoam.com                      |
|    \\/     M anipulation  |                                                 |
\*---------------------------------------------------------------------------*/
FoamFile
{
    version     2.0;
    format      ascii;
    arch        "LSB;label=32;scalar=64";
    class       volVectorField;
    location    "3.8e-06";
    object      rhoU;
}
// * * * * * * * * * * * * * * * * * * * * * * * * * * * * * * * * * * * * * //

dimensions      [0 0 0 0 0 0 0];

internalField   nonuniform List<vector> 
84
(
(0.0741074 -2.46115e-07 0)
(0.0353355 -4.63327e-07 0)
(0.0408144 -3.88678e-07 -1.03829e-19)
(0.0741175 -9.17169e-05 0)
(0.0353489 -5.32219e-05 0)
(0.0408264 -5.92508e-05 -1.00704e-19)
(0.0741149 -9.1467e-05 0)
(0.0353473 -5.30684e-05 0)
(0.0408247 -5.90819e-05 1.35051e-19)
(0.0741149 -9.1467e-05 0)
(0.0353473 -5.30684e-05 0)
(0.0408247 -5.90819e-05 -1.74132e-19)
(0.0741149 -9.1467e-05 0)
(0.0353473 -5.30684e-05 0)
(0.0408247 -5.90819e-05 -2.87296e-19)
(0.0741149 -9.1467e-05 0)
(0.0353473 -5.30684e-05 0)
(0.0408247 -5.90819e-05 1.70961e-19)
(0.0741149 -9.1467e-05 0)
(0.0353473 -5.30684e-05 0)
(0.0408247 -5.90819e-05 -2.17067e-19)
(0.0741149 -9.1467e-05 0)
(0.0353473 -5.30684e-05 0)
(0.0408247 -5.90819e-05 -2.46704e-19)
(0.0741149 -9.1467e-05 0)
(0.0353473 -5.30684e-05 0)
(0.0408247 -5.90819e-05 1.01475e-19)
(0.0741149 -9.1467e-05 0)
(0.0353473 -5.30684e-05 0)
(0.0408247 -5.90819e-05 -2.15532e-19)
(0.0741149 -9.14671e-05 0)
(0.0353473 -5.30667e-05 0)
(0.0408246 -5.90807e-05 -5.309e-19)
(0.0741151 -9.14794e-05 0)
(0.0353442 -5.2765e-05 0)
(0.0408225 -5.88689e-05 0)
(0.0591267 8.96757e-05 6.71436e-21)
(0.0578954 8.47281e-05 9.71297e-20)
(0.0581609 8.52202e-05 9.70165e-21)
(0.0612392 -9.0094e-05 6.46318e-21)
(0.0598916 -8.94772e-05 1.02436e-19)
(0.0601687 -8.97866e-05 -1.75879e-21)
(0.0610198 -8.9798e-05 -9.47595e-21)
(0.0596841 -8.91848e-05 -4.80971e-20)
(0.0599587 -8.94344e-05 -2.04548e-19)
(0.0608011 -8.94955e-05 1.21753e-20)
(0.0594774 -8.88937e-05 -2.07823e-21)
(0.0595576 -9.02673e-05 1.015e-22)
(0.0578056 4.03132e-06 1.53692e-19)
(0.0605828 -8.92099e-05 -3.15104e-20)
(0.0592711 -8.86183e-05 3.84603e-22)
(0.0593477 -8.99832e-05 -1.57014e-21)
(0.0595669 -9.02205e-05 1.5686e-19)
(0.0603642 -8.4916e-05 -1.19508e-20)
(0.0590645 -8.45718e-05 -1.00888e-19)
(0.0591374 -8.58758e-05 3.32422e-21)
(0.0593562 -8.61037e-05 1.04082e-19)
(0.0601449 -6.73682e-05 1.4441e-20)
(0.0588572 -6.79545e-05 -9.9407e-22)
(0.0589265 -6.89612e-05 -3.5961e-22)
(0.0591447 -6.9146e-05 -8.37241e-22)
(0.0599291 -5.62906e-05 1.82681e-20)
(0.0586531 -5.74584e-05 -9.93436e-20)
(0.0587188 -5.82846e-05 1.09114e-19)
(0.0589356 -5.83986e-05 1.17512e-21)
(0.0597069 -4.99714e-05 -6.54945e-21)
(0.0584425 -5.14599e-05 -1.49788e-19)
(0.0585045 -5.21678e-05 -1.43109e-19)
(0.058512 -5.29306e-05 1.69964e-19)
(0.0578671 4.27602e-06 9.39291e-19)
(0.0595063 -4.93061e-05 1.5514e-20)
(0.0582543 -5.08192e-05 -1.50946e-19)
(0.0583131 -5.14979e-05 1.06984e-19)
(0.0583178 -5.22344e-05 2.31238e-19)
(0.058536 -5.2586e-05 1.37809e-19)
(0.0592883 -5.6056e-05 3.74858e-20)
(0.058048 -5.71887e-05 -1.47214e-21)
(0.0581031 -5.79826e-05 2.32261e-22)
(0.0581052 -5.88579e-05 -1.64184e-22)
(0.0583598 -6.17608e-05 -1.5339e-19)
(0.0590776 -6.79049e-05 1.10113e-22)
(0.0578485 -6.83557e-05 1.45291e-19)
(0.0579002 -6.93391e-05 -8.83087e-21)
(0.0581153 -6.95056e-05 -2.32255e-19)
)
;

boundaryField
{
    inlet
    {
        type            calculated;
        value           uniform (0 0 0);
    }
    outlet2
    {
        type            calculated;
        value           uniform (0 0 0);
    }
    outlet1
    {
        type            calculated;
        value           nonuniform List<vector> 0();
    }
    wall
    {
        type            calculated;
        value           uniform (0 0 0);
    }
    symmetryBottom
    {
        type            symmetry;
    }
    symmetryZ0
    {
        type            symmetry;
    }
    symmetryZ05
    {
        type            symmetry;
    }
    procBoundary1to0
    {
        type            processor;
        value           uniform (0 0 0);
    }
}


// ************************************************************************* //
