/*--------------------------------*- C++ -*----------------------------------*\
| =========                 |                                                 |
| \\      /  F ield         | OpenFOAM: The Open Source CFD Toolbox           |
|  \\    /   O peration     | Version:  2412                                  |
|   \\  /    A nd           | Website:  www.openfoam.com                      |
|    \\/     M anipulation  |                                                 |
\*---------------------------------------------------------------------------*/
FoamFile
{
    version     2.0;
    format      ascii;
    arch        "LSB;label=32;scalar=64";
    class       volScalarField;
    location    "3.8e-06";
    object      T;
}
// * * * * * * * * * * * * * * * * * * * * * * * * * * * * * * * * * * * * * //

dimensions      [0 0 0 0 0 0 0];

internalField   nonuniform List<scalar> 
84
(
200.005
199.778
200.046
199.988
199.741
200.016
199.983
199.736
200.01
199.983
199.736
200.01
199.983
199.736
200.01
199.983
199.736
200.01
199.983
199.736
200.01
199.983
199.736
200.01
199.983
199.736
200.01
199.983
199.736
200.01
199.983
199.736
200.01
199.984
199.725
200.004
202.351
202.258
202.263
200.013
199.997
199.999
200.013
199.997
199.999
200.013
199.997
199.999
200.011
200.015
199.999
200.001
200.001
200.415
200.383
200.391
200.39
202.105
202.018
202.053
202.05
203.696
203.555
203.616
203.612
210.122
209.736
209.909
210.06
199.415
196.06
196.165
196.103
196.045
195.949
199.07
199.085
199.072
199.059
199.103
199.618
199.615
199.611
199.611
)
;

boundaryField
{
    inlet
    {
        type            calculated;
        value           uniform 0;
    }
    outlet2
    {
        type            calculated;
        value           uniform 0;
    }
    outlet1
    {
        type            calculated;
        value           nonuniform List<scalar> 0();
    }
    wall
    {
        type            calculated;
        value           uniform 0;
    }
    symmetryBottom
    {
        type            symmetry;
    }
    symmetryZ0
    {
        type            symmetry;
    }
    symmetryZ05
    {
        type            symmetry;
    }
    procBoundary1to0
    {
        type            processor;
        value           uniform 0;
    }
}


// ************************************************************************* //
