/*--------------------------------*- C++ -*----------------------------------*\
| =========                 |                                                 |
| \\      /  F ield         | OpenFOAM: The Open Source CFD Toolbox           |
|  \\    /   O peration     | Version:  2412                                  |
|   \\  /    A nd           | Website:  www.openfoam.com                      |
|    \\/     M anipulation  |                                                 |
\*---------------------------------------------------------------------------*/
FoamFile
{
    version     2.0;
    format      ascii;
    arch        "LSB;label=32;scalar=64";
    class       volScalarField;
    location    "1.7e-06";
    object      E_dof0;
}
// * * * * * * * * * * * * * * * * * * * * * * * * * * * * * * * * * * * * * //

dimensions      [0 0 0 0 0 0 0];

internalField   nonuniform List<scalar> 
84
(
99.3334
88.7168
89.0005
88.9963
88.997
88.9976
88.9982
89.1591
100.911
90.1566
90.4658
90.4838
90.5072
90.5314
90.5563
90.7192
100.709
90.0428
90.3149
90.3316
90.3527
90.3744
90.3968
90.5595
100.576
89.8802
90.1844
90.1983
90.2177
90.2376
90.4001
100.448
89.7305
90.0326
90.0442
90.0611
90.0785
90.2408
100.287
89.5824
89.882
89.8912
89.9057
89.9206
90.0827
100.128
89.4377
89.7346
89.7415
89.7537
89.7662
89.9281
99.9494
89.3131
89.5882
89.5935
89.6033
89.6134
89.7752
99.8202
89.1733
89.4653
89.4682
89.4761
89.6377
99.6282
88.9795
89.2684
89.2682
89.2731
89.4344
99.4654
88.8401
89.1261
89.1237
89.1263
89.2874
99.1477
88.7048
88.9763
88.972
88.9721
88.9722
89.1332
)
;

boundaryField
{
    inlet
    {
        type            calculated;
        value           nonuniform List<scalar> 0();
    }
    outlet2
    {
        type            calculated;
        value           uniform 99.4306;
    }
    outlet1
    {
        type            calculated;
        value           uniform 99.4306;
    }
    wall
    {
        type            calculated;
        value           uniform 99.4306;
    }
    symmetryBottom
    {
        type            symmetry;
    }
    symmetryZ0
    {
        type            symmetry;
    }
    symmetryZ05
    {
        type            symmetry;
    }
    procBoundary0to1
    {
        type            processor;
        value           uniform 99.4306;
    }
}


// ************************************************************************* //
