/*--------------------------------*- C++ -*----------------------------------*\
| =========                 |                                                 |
| \\      /  F ield         | OpenFOAM: The Open Source CFD Toolbox           |
|  \\    /   O peration     | Version:  2412                                  |
|   \\  /    A nd           | Website:  www.openfoam.com                      |
|    \\/     M anipulation  |                                                 |
\*---------------------------------------------------------------------------*/
FoamFile
{
    version     2.0;
    format      ascii;
    arch        "LSB;label=32;scalar=64";
    class       volScalarField;
    location    "1.7e-06";
    object      rho_dof0;
}
// * * * * * * * * * * * * * * * * * * * * * * * * * * * * * * * * * * * * * //

dimensions      [0 0 0 0 0 0 0];

internalField   nonuniform List<scalar> 
84
(
2.80865e-05
2.51181e-05
2.51966e-05
2.51955e-05
2.51957e-05
2.5196e-05
2.51962e-05
2.52412e-05
2.85231e-05
2.55168e-05
2.56024e-05
2.56074e-05
2.5614e-05
2.56207e-05
2.56277e-05
2.56733e-05
2.84668e-05
2.54849e-05
2.55602e-05
2.55649e-05
2.55708e-05
2.55768e-05
2.55831e-05
2.56286e-05
2.84295e-05
2.54395e-05
2.55237e-05
2.55276e-05
2.5533e-05
2.55386e-05
2.5584e-05
2.83937e-05
2.53977e-05
2.54812e-05
2.54845e-05
2.54892e-05
2.54941e-05
2.55395e-05
2.83482e-05
2.5356e-05
2.54388e-05
2.54414e-05
2.54455e-05
2.54496e-05
2.5495e-05
2.83027e-05
2.53144e-05
2.53965e-05
2.53984e-05
2.54018e-05
2.54053e-05
2.54505e-05
2.82513e-05
2.52782e-05
2.53542e-05
2.53556e-05
2.53583e-05
2.53611e-05
2.54063e-05
2.82088e-05
2.52331e-05
2.53136e-05
2.53143e-05
2.53164e-05
2.53616e-05
2.81695e-05
2.51921e-05
2.5272e-05
2.52721e-05
2.52735e-05
2.53186e-05
2.81205e-05
2.51498e-05
2.52289e-05
2.52283e-05
2.5229e-05
2.52741e-05
2.80303e-05
2.51112e-05
2.51862e-05
2.51851e-05
2.51851e-05
2.51851e-05
2.52302e-05
)
;

boundaryField
{
    inlet
    {
        type            calculated;
        value           nonuniform List<scalar> 0();
    }
    outlet2
    {
        type            calculated;
        value           uniform 2.81085e-05;
    }
    outlet1
    {
        type            calculated;
        value           uniform 2.81085e-05;
    }
    wall
    {
        type            calculated;
        value           uniform 2.81085e-05;
    }
    symmetryBottom
    {
        type            symmetry;
    }
    symmetryZ0
    {
        type            symmetry;
    }
    symmetryZ05
    {
        type            symmetry;
    }
    procBoundary0to1
    {
        type            processor;
        value           uniform 2.81085e-05;
    }
}


// ************************************************************************* //
