/*--------------------------------*- C++ -*----------------------------------*\
| =========                 |                                                 |
| \\      /  F ield         | OpenFOAM: The Open Source CFD Toolbox           |
|  \\    /   O peration     | Version:  2412                                  |
|   \\  /    A nd           | Website:  www.openfoam.com                      |
|    \\/     M anipulation  |                                                 |
\*---------------------------------------------------------------------------*/
FoamFile
{
    version     2.0;
    format      ascii;
    arch        "LSB;label=32;scalar=64";
    class       volScalarField;
    location    "6.3e-06";
    object      E;
}
// * * * * * * * * * * * * * * * * * * * * * * * * * * * * * * * * * * * * * //

dimensions      [0 0 0 0 0 0 0];

internalField   nonuniform List<scalar> 
84
(
96.747
62.7503
66.2644
66.0293
66.0455
66.0494
66.054
66.532
102.472
66.5588
70.3311
70.145
70.2259
70.2958
70.3685
70.8698
101.364
66.6477
69.8375
69.7141
69.7829
69.8457
69.9109
70.4098
100.932
65.8264
69.5255
69.3305
69.399
69.4562
69.9527
100.749
65.3925
69.0945
68.8925
68.9538
69.0036
69.4978
100.145
64.9898
68.6639
68.4564
68.5105
68.553
69.0448
99.5524
64.5988
68.2428
68.0304
68.0774
68.1127
68.6021
98.711
64.4883
67.7985
67.6186
67.6563
67.6849
68.172
98.2355
63.8932
67.4715
67.2503
67.285
67.7695
97.7403
63.3939
66.9564
66.7284
66.755
67.2365
97.0426
63.028
66.5451
66.3131
66.3326
66.8119
95.9342
62.7811
66.1227
65.9022
65.9141
65.9148
66.3924
)
;

boundaryField
{
    inlet
    {
        type            calculated;
        value           nonuniform List<scalar> 0();
    }
    outlet2
    {
        type            calculated;
        value           uniform 0;
    }
    outlet1
    {
        type            calculated;
        value           uniform 0;
    }
    wall
    {
        type            calculated;
        value           uniform 0;
    }
    symmetryBottom
    {
        type            symmetry;
    }
    symmetryZ0
    {
        type            symmetry;
    }
    symmetryZ05
    {
        type            symmetry;
    }
    procBoundary0to1
    {
        type            processor;
        value           uniform 0;
    }
}


// ************************************************************************* //
