/*--------------------------------*- C++ -*----------------------------------*\
| =========                 |                                                 |
| \\      /  F ield         | OpenFOAM: The Open Source CFD Toolbox           |
|  \\    /   O peration     | Version:  2412                                  |
|   \\  /    A nd           | Website:  www.openfoam.com                      |
|    \\/     M anipulation  |                                                 |
\*---------------------------------------------------------------------------*/
FoamFile
{
    version     2.0;
    format      ascii;
    arch        "LSB;label=32;scalar=64";
    class       volScalarField;
    location    "6.3e-06";
    object      rho;
}
// * * * * * * * * * * * * * * * * * * * * * * * * * * * * * * * * * * * * * //

dimensions      [0 0 0 0 0 0 0];

internalField   nonuniform List<scalar> 
84
(
2.7383e-05
1.78584e-05
1.88317e-05
1.87675e-05
1.87722e-05
1.87734e-05
1.87749e-05
1.8909e-05
2.89679e-05
1.89173e-05
1.99612e-05
1.99107e-05
1.99333e-05
1.99529e-05
1.99733e-05
2.01137e-05
2.86594e-05
1.89401e-05
1.98231e-05
1.97898e-05
1.9809e-05
1.98266e-05
1.98449e-05
1.99847e-05
2.85386e-05
1.87114e-05
1.97352e-05
1.96822e-05
1.97013e-05
1.97174e-05
1.98565e-05
2.84863e-05
1.85897e-05
1.96143e-05
1.95593e-05
1.95764e-05
1.95904e-05
1.97289e-05
2.83167e-05
1.84762e-05
1.9493e-05
1.94365e-05
1.94515e-05
1.94634e-05
1.96013e-05
2.81464e-05
1.83638e-05
1.93719e-05
1.9314e-05
1.9327e-05
1.93369e-05
1.9474e-05
2.79062e-05
1.83286e-05
1.92439e-05
1.91948e-05
1.92052e-05
1.92131e-05
1.93496e-05
2.77503e-05
1.81451e-05
1.91336e-05
1.90728e-05
1.90819e-05
1.92176e-05
2.76642e-05
1.80392e-05
1.90265e-05
1.89643e-05
1.89719e-05
1.9107e-05
2.74555e-05
1.79285e-05
1.89024e-05
1.8839e-05
1.88444e-05
1.89788e-05
2.71404e-05
1.78574e-05
1.87817e-05
1.87215e-05
1.87247e-05
1.8725e-05
1.88589e-05
)
;

boundaryField
{
    inlet
    {
        type            calculated;
        value           nonuniform List<scalar> 0();
    }
    outlet2
    {
        type            calculated;
        value           uniform 0;
    }
    outlet1
    {
        type            calculated;
        value           uniform 0;
    }
    wall
    {
        type            calculated;
        value           uniform 0;
    }
    symmetryBottom
    {
        type            symmetry;
    }
    symmetryZ0
    {
        type            symmetry;
    }
    symmetryZ05
    {
        type            symmetry;
    }
    procBoundary0to1
    {
        type            processor;
        value           uniform 0;
    }
}


// ************************************************************************* //
