/*--------------------------------*- C++ -*----------------------------------*\
| =========                 |                                                 |
| \\      /  F ield         | OpenFOAM: The Open Source CFD Toolbox           |
|  \\    /   O peration     | Version:  2412                                  |
|   \\  /    A nd           | Website:  www.openfoam.com                      |
|    \\/     M anipulation  |                                                 |
\*---------------------------------------------------------------------------*/
FoamFile
{
    version     2.0;
    format      ascii;
    arch        "LSB;label=32;scalar=64";
    class       volVectorField;
    location    "6.3e-06";
    object      rhoU;
}
// * * * * * * * * * * * * * * * * * * * * * * * * * * * * * * * * * * * * * //

dimensions      [0 0 0 0 0 0 0];

internalField   nonuniform List<vector> 
84
(
(0.0721351 0.000176421 1.7694e-19)
(0.0469131 0.000117216 -1.71305e-19)
(0.0495055 0.000125246 -2.92767e-19)
(0.0493331 0.000126632 1.89849e-19)
(0.0493451 0.000128518 -2.67935e-20)
(0.0493481 0.000130438 2.38816e-20)
(0.0493516 0.000132416 2.80258e-19)
(0.0497064 0.000133145 3.45116e-20)
(0.076371 -0.000191731 1.80317e-19)
(0.0497369 -0.000129498 -1.71258e-19)
(0.0525191 -0.000137803 -3.81576e-19)
(0.0523832 -0.000139613 4.88789e-20)
(0.0524431 -0.0001419 -7.17913e-19)
(0.052495 -0.000144243 1.75167e-19)
(0.052549 -0.000146666 5.83333e-19)
(0.052921 -0.000147422 1.16545e-19)
(0.0755513 -0.000171577 -7.16531e-19)
(0.0498002 -0.000146177 1.42669e-19)
(0.0521532 -0.00013479 2.16031e-19)
(0.0520632 -0.000138943 -2.70811e-20)
(0.0521142 -0.000141035 -1.03853e-20)
(0.0521609 -0.00014336 2.78198e-19)
(0.0522093 -0.000145753 -2.4288e-19)
(0.0525795 -0.000146506 -2.67004e-19)
(0.075231 -0.000177938 -6.8662e-19)
(0.0491926 -0.000130694 3.21987e-19)
(0.051921 -0.000138341 -3.7372e-20)
(0.0517785 -0.000140174 -6.48384e-19)
(0.0518292 -0.000142482 6.48169e-19)
(0.0518716 -0.000144846 1.03416e-19)
(0.0522401 -0.000145596 -2.43923e-19)
(0.0750937 -0.00019178 -4.32021e-19)
(0.0488704 -0.000128957 -1.10808e-19)
(0.0516009 -0.000137613 1.30428e-20)
(0.0514532 -0.000139371 3.9603e-21)
(0.0514986 -0.000141655 -2.24435e-19)
(0.0515356 -0.000143993 1.94009e-19)
(0.0519023 -0.000144739 4.06832e-19)
(0.0746433 -0.000184438 -2.6458e-19)
(0.0485695 -0.00012378 3.46115e-19)
(0.0512793 -0.000132182 -3.92123e-20)
(0.0511275 -0.000133898 4.11631e-19)
(0.0511675 -0.000136129 -3.78185e-19)
(0.051199 -0.000138411 3.19922e-19)
(0.0515639 -0.00013913 -6.87254e-19)
(0.0741888 -0.000147527 -1.00023e-22)
(0.0482692 -9.92188e-05 3.17479e-19)
(0.0509561 -0.000105765 -3.7571e-20)
(0.0508004 -0.000107147 1.38272e-21)
(0.050835 -0.000108916 3.36958e-19)
(0.050861 -0.000110728 3.99368e-20)
(0.0512241 -0.000111306 3.34195e-19)
(0.0735504 -0.000108911 6.72903e-21)
(0.0481755 -9.78798e-05 5.06717e-21)
(0.0506154 -8.79841e-05 -1.94134e-21)
(0.0504834 -9.10413e-05 -5.00346e-21)
(0.0505109 -9.24212e-05 -1.00843e-21)
(0.0505317 -9.39785e-05 2.36803e-21)
(0.0508931 -9.44679e-05 -2.70574e-19)
(0.0731342 -0.000103708 9.51552e-19)
(0.0476858 -7.58144e-05 -9.50203e-20)
(0.0503205 -8.03585e-05 -7.03641e-19)
(0.0501573 -8.14042e-05 -2.11829e-19)
(0.0501814 -8.27374e-05 3.88983e-19)
(0.0505406 -8.31743e-05 -4.92528e-20)
(0.0729109 -0.000109059 -3.36021e-19)
(0.0474147 -7.28913e-05 3.40016e-20)
(0.0500451 -7.78303e-05 -3.25084e-19)
(0.0498783 -7.87578e-05 3.63524e-19)
(0.0498985 -7.99896e-05 6.0326e-19)
(0.0502561 -8.04196e-05 -6.93442e-20)
(0.0723594 -0.00011445 -4.42556e-19)
(0.0471211 -8.37109e-05 4.64769e-20)
(0.0497162 -8.80383e-05 -2.22614e-21)
(0.0495462 -8.91999e-05 6.39446e-19)
(0.0495607 -9.06098e-05 6.47929e-19)
(0.0499165 -9.10945e-05 2.00837e-20)
(0.0715259 -1.7444e-05 -3.46603e-20)
(0.0469334 -0.000114176 2.50574e-21)
(0.0493975 -0.000101927 -1.27752e-22)
(0.0492359 -0.000104717 3.82801e-19)
(0.0492447 -0.000106244 -4.43568e-20)
(0.0492452 -0.0001079 3.16647e-21)
(0.0495998 -0.000108483 -3.17482e-19)
)
;

boundaryField
{
    inlet
    {
        type            calculated;
        value           nonuniform List<vector> 0();
    }
    outlet2
    {
        type            calculated;
        value           uniform (0 0 0);
    }
    outlet1
    {
        type            calculated;
        value           uniform (0 0 0);
    }
    wall
    {
        type            calculated;
        value           uniform (0 0 0);
    }
    symmetryBottom
    {
        type            symmetry;
    }
    symmetryZ0
    {
        type            symmetry;
    }
    symmetryZ05
    {
        type            symmetry;
    }
    procBoundary0to1
    {
        type            processor;
        value           uniform (0 0 0);
    }
}


// ************************************************************************* //
