/*--------------------------------*- C++ -*----------------------------------*\
| =========                 |                                                 |
| \\      /  F ield         | OpenFOAM: The Open Source CFD Toolbox           |
|  \\    /   O peration     | Version:  2412                                  |
|   \\  /    A nd           | Website:  www.openfoam.com                      |
|    \\/     M anipulation  |                                                 |
\*---------------------------------------------------------------------------*/
FoamFile
{
    version     2.0;
    format      ascii;
    arch        "LSB;label=32;scalar=64";
    class       volScalarField;
    location    "6.3e-06";
    object      T;
}
// * * * * * * * * * * * * * * * * * * * * * * * * * * * * * * * * * * * * * //

dimensions      [0 0 0 0 0 0 0];

internalField   nonuniform List<scalar> 
84
(
203.828
203.877
203.998
204.049
204.112
204.177
204.243
204.237
199.976
199.943
200.006
199.997
199.997
199.997
199.997
199.998
199.954
199.944
200.005
199.997
199.997
199.997
199.997
199.998
199.984
199.94
200.006
199.996
199.997
199.997
199.998
199.984
199.945
200.012
200.002
200.003
200.003
200.004
200.521
200.524
200.588
200.583
200.589
200.593
200.592
203.401
203.504
203.601
203.647
203.704
203.761
203.755
205.941
206.415
206.429
206.537
206.64
206.748
206.735
216.369
218.852
218.938
219.288
219.641
219.592
193.107
192.937
192.901
192.774
192.655
192.669
198.229
198.286
198.305
198.268
198.24
198.244
199.824
199.205
199.306
199.283
199.272
199.26
199.262
)
;

boundaryField
{
    inlet
    {
        type            calculated;
        value           nonuniform List<scalar> 0();
    }
    outlet2
    {
        type            calculated;
        value           uniform 0;
    }
    outlet1
    {
        type            calculated;
        value           uniform 0;
    }
    wall
    {
        type            calculated;
        value           uniform 0;
    }
    symmetryBottom
    {
        type            symmetry;
    }
    symmetryZ0
    {
        type            symmetry;
    }
    symmetryZ05
    {
        type            symmetry;
    }
    procBoundary0to1
    {
        type            processor;
        value           uniform 0;
    }
}


// ************************************************************************* //
