/*--------------------------------*- C++ -*----------------------------------*\
| =========                 |                                                 |
| \\      /  F ield         | OpenFOAM: The Open Source CFD Toolbox           |
|  \\    /   O peration     | Version:  2412                                  |
|   \\  /    A nd           | Website:  www.openfoam.com                      |
|    \\/     M anipulation  |                                                 |
\*---------------------------------------------------------------------------*/
FoamFile
{
    version     2.0;
    format      ascii;
    arch        "LSB;label=32;scalar=64";
    class       volVectorField;
    location    "6.3e-06";
    object      U;
}
// * * * * * * * * * * * * * * * * * * * * * * * * * * * * * * * * * * * * * //

dimensions      [0 0 0 0 0 0 0];

internalField   nonuniform List<vector> 
84
(
(2634.3 6.44271 6.46167e-15)
(2626.95 6.56363 -9.59241e-15)
(2628.83 6.65081 -1.55465e-14)
(2628.64 6.74738 1.01158e-14)
(2628.63 6.8462 -1.4273e-15)
(2628.61 6.94799 1.27209e-15)
(2628.59 7.05284 1.49273e-14)
(2628.72 7.04135 1.82514e-15)
(2636.4 -6.61875 6.2247e-15)
(2629.18 -6.84549 -9.05298e-15)
(2631.07 -6.90356 -1.91159e-14)
(2630.91 -7.01195 2.45491e-15)
(2630.93 -7.11876 -3.60158e-14)
(2630.95 -7.2292 8.77904e-15)
(2630.97 -7.34312 2.92057e-14)
(2631.09 -7.32941 5.79428e-15)
(2636.18 -5.98677 -2.50016e-14)
(2629.35 -7.71783 7.53262e-15)
(2630.93 -6.79962 1.08979e-14)
(2630.81 -7.02097 -1.36844e-15)
(2630.83 -7.11976 -5.24273e-16)
(2630.85 -7.23066 1.40315e-14)
(2630.86 -7.34461 -1.22389e-14)
(2630.98 -7.33089 -1.33604e-14)
(2636.12 -6.235 -2.40594e-14)
(2629.01 -6.98471 1.72081e-14)
(2630.88 -7.00988 -1.89368e-15)
(2630.72 -7.12184 -3.29426e-14)
(2630.75 -7.23212 3.28998e-14)
(2630.76 -7.34614 5.24494e-15)
(2630.88 -7.33241 -1.22843e-14)
(2636.14 -6.73238 -1.51659e-14)
(2628.89 -6.93702 -5.96069e-15)
(2630.79 -7.01597 6.64967e-16)
(2630.62 -7.12554 2.02477e-16)
(2630.65 -7.23603 -1.14646e-14)
(2630.66 -7.35017 9.9033e-15)
(2630.78 -7.33642 2.06212e-14)
(2636.02 -6.51341 -9.34361e-15)
(2628.76 -6.69942 1.8733e-14)
(2630.66 -6.78101 -2.01161e-15)
(2630.49 -6.88903 2.11783e-14)
(2630.51 -6.99835 -1.94425e-14)
(2630.52 -7.11133 1.64371e-14)
(2630.64 -7.09803 -3.50617e-14)
(2635.82 -5.24142 -3.55366e-18)
(2628.5 -5.40296 1.72883e-14)
(2630.41 -5.45968 -1.93946e-15)
(2630.23 -5.54763 7.15916e-17)
(2630.25 -5.63542 1.74345e-14)
(2630.26 -5.72624 2.06532e-15)
(2630.38 -5.7156 1.7161e-14)
(2635.63 -3.90275 2.4113e-16)
(2628.43 -5.34028 2.76463e-16)
(2630.21 -4.57205 -1.00881e-16)
(2630.06 -4.74302 -2.60667e-16)
(2630.07 -4.81231 -5.2508e-17)
(2630.07 -4.89138 1.23251e-16)
(2630.19 -4.88217 -1.39834e-14)
(2635.44 -3.7372 3.42898e-14)
(2628.03 -4.17823 -5.2367e-15)
(2629.96 -4.19987 -3.67752e-14)
(2629.78 -4.26807 -1.11063e-14)
(2629.78 -4.3359 2.03849e-14)
(2629.91 -4.32803 -2.5629e-15)
(2635.57 -3.94226 -1.21464e-14)
(2628.42 -4.04071 1.88487e-15)
(2630.28 -4.09062 -1.70859e-14)
(2630.11 -4.15294 1.91688e-14)
(2630.13 -4.21621 3.17976e-14)
(2630.25 -4.20892 -3.62926e-15)
(2635.51 -4.16856 -1.6119e-14)
(2628.28 -4.66916 2.59235e-15)
(2630.16 -4.65753 -1.17771e-16)
(2629.98 -4.73486 3.39427e-14)
(2630 -4.80832 3.43831e-14)
(2630.12 -4.79981 1.05822e-15)
(2635.4 -0.642731 -1.27707e-15)
(2628.23 -6.39376 1.4032e-16)
(2630.09 -5.42693 -6.80194e-18)
(2629.92 -5.59342 2.04471e-14)
(2629.93 -5.67397 -2.36888e-15)
(2629.93 -5.76238 1.69104e-16)
(2630.05 -5.75237 -1.68346e-14)
)
;

boundaryField
{
    inlet
    {
        type            calculated;
        value           nonuniform List<vector> 0();
    }
    outlet2
    {
        type            calculated;
        value           uniform (0 0 0);
    }
    outlet1
    {
        type            calculated;
        value           uniform (0 0 0);
    }
    wall
    {
        type            calculated;
        value           uniform (0 0 0);
    }
    symmetryBottom
    {
        type            symmetry;
    }
    symmetryZ0
    {
        type            symmetry;
    }
    symmetryZ05
    {
        type            symmetry;
    }
    procBoundary0to1
    {
        type            processor;
        value           uniform (0 0 0);
    }
}


// ************************************************************************* //
