/*--------------------------------*- C++ -*----------------------------------*\
| =========                 |                                                 |
| \\      /  F ield         | OpenFOAM: The Open Source CFD Toolbox           |
|  \\    /   O peration     | Version:  2412                                  |
|   \\  /    A nd           | Website:  www.openfoam.com                      |
|    \\/     M anipulation  |                                                 |
\*---------------------------------------------------------------------------*/
FoamFile
{
    version     2.0;
    format      ascii;
    arch        "LSB;label=32;scalar=64";
    class       volScalarField;
    location    "4.3e-06";
    object      rho_dof0;
}
// * * * * * * * * * * * * * * * * * * * * * * * * * * * * * * * * * * * * * //

dimensions      [0 0 0 0 0 0 0];

internalField   nonuniform List<scalar> 
84
(
2.81097e-05
1.1863e-05
1.44361e-05
2.81145e-05
1.18687e-05
1.44412e-05
2.81133e-05
1.1868e-05
1.44404e-05
2.81133e-05
1.1868e-05
1.44404e-05
2.81133e-05
1.1868e-05
1.44404e-05
2.81133e-05
1.1868e-05
1.44404e-05
2.81133e-05
1.1868e-05
1.44404e-05
2.81133e-05
1.1868e-05
1.44404e-05
2.81133e-05
1.1868e-05
1.44404e-05
2.81133e-05
1.1868e-05
1.44404e-05
2.81133e-05
1.1868e-05
1.44404e-05
2.81133e-05
1.18667e-05
1.44396e-05
2.18687e-05
2.12973e-05
2.14138e-05
2.27446e-05
2.21162e-05
2.22386e-05
2.26526e-05
2.20301e-05
2.21512e-05
2.25609e-05
2.19444e-05
2.19842e-05
2.12525e-05
2.24695e-05
2.18588e-05
2.1897e-05
2.19884e-05
2.2378e-05
2.17734e-05
2.18099e-05
2.1901e-05
2.22868e-05
2.16881e-05
2.17231e-05
2.18139e-05
2.21967e-05
2.16039e-05
2.16373e-05
2.17275e-05
2.21036e-05
2.15168e-05
2.15486e-05
2.15514e-05
2.1282e-05
2.20196e-05
2.14382e-05
2.14686e-05
2.14703e-05
2.15612e-05
2.1928e-05
2.13526e-05
2.13813e-05
2.1382e-05
2.14903e-05
2.18399e-05
2.12701e-05
2.12973e-05
2.13867e-05
)
;

boundaryField
{
    inlet
    {
        type            calculated;
        value           uniform 2.81085e-05;
    }
    outlet2
    {
        type            calculated;
        value           uniform 2.81085e-05;
    }
    outlet1
    {
        type            calculated;
        value           nonuniform List<scalar> 0();
    }
    wall
    {
        type            calculated;
        value           uniform 2.81085e-05;
    }
    symmetryBottom
    {
        type            symmetry;
    }
    symmetryZ0
    {
        type            symmetry;
    }
    symmetryZ05
    {
        type            symmetry;
    }
    procBoundary1to0
    {
        type            processor;
        value           uniform 2.81085e-05;
    }
}


// ************************************************************************* //
