/*--------------------------------*- C++ -*----------------------------------*\
| =========                 |                                                 |
| \\      /  F ield         | OpenFOAM: The Open Source CFD Toolbox           |
|  \\    /   O peration     | Version:  2412                                  |
|   \\  /    A nd           | Website:  www.openfoam.com                      |
|    \\/     M anipulation  |                                                 |
\*---------------------------------------------------------------------------*/
FoamFile
{
    version     2.0;
    format      ascii;
    arch        "LSB;label=32;scalar=64";
    class       volScalarField;
    location    "4.3e-06";
    object      T;
}
// * * * * * * * * * * * * * * * * * * * * * * * * * * * * * * * * * * * * * //

dimensions      [0 0 0 0 0 0 0];

internalField   nonuniform List<scalar> 
84
(
200.006
199.642
200.069
199.985
199.595
200.031
199.98
199.588
200.024
199.98
199.588
200.024
199.98
199.588
200.024
199.98
199.588
200.024
199.98
199.588
200.024
199.98
199.588
200.024
199.98
199.588
200.024
199.98
199.588
200.024
199.98
199.588
200.024
199.98
199.574
200.017
202.674
202.555
202.562
200.015
199.996
199.999
200.016
199.995
199.999
200.015
199.995
199.999
200.014
200.018
199.998
200.001
200.001
200.461
200.422
200.431
200.43
202.392
202.28
202.322
202.318
204.212
204.029
204.101
204.096
211.645
211.128
211.336
211.511
199.239
195.509
195.645
195.574
195.508
195.379
198.939
198.96
198.945
198.93
198.986
199.564
199.562
199.557
199.558
)
;

boundaryField
{
    inlet
    {
        type            calculated;
        value           uniform 0;
    }
    outlet2
    {
        type            calculated;
        value           uniform 0;
    }
    outlet1
    {
        type            calculated;
        value           nonuniform List<scalar> 0();
    }
    wall
    {
        type            calculated;
        value           uniform 0;
    }
    symmetryBottom
    {
        type            symmetry;
    }
    symmetryZ0
    {
        type            symmetry;
    }
    symmetryZ05
    {
        type            symmetry;
    }
    procBoundary1to0
    {
        type            processor;
        value           uniform 0;
    }
}


// ************************************************************************* //
