/*--------------------------------*- C++ -*----------------------------------*\
| =========                 |                                                 |
| \\      /  F ield         | OpenFOAM: The Open Source CFD Toolbox           |
|  \\    /   O peration     | Version:  2412                                  |
|   \\  /    A nd           | Website:  www.openfoam.com                      |
|    \\/     M anipulation  |                                                 |
\*---------------------------------------------------------------------------*/
FoamFile
{
    version     2.0;
    format      ascii;
    arch        "LSB;label=32;scalar=64";
    class       volScalarField;
    location    "8e-06";
    object      T;
}
// * * * * * * * * * * * * * * * * * * * * * * * * * * * * * * * * * * * * * //

dimensions      [0 0 0 0 0 0 0];

internalField   nonuniform List<scalar> 
84
(
200.017
153.207
200.507
199.961
152.991
200.398
199.947
152.928
200.377
199.947
152.928
200.377
199.947
152.928
200.377
199.947
152.928
200.377
199.947
152.928
200.377
199.947
152.928
200.377
199.947
152.928
200.377
199.947
152.928
200.377
199.947
152.925
200.377
199.947
152.713
200.368
205.119
204.73
204.784
200.025
199.978
200
200.026
199.978
200.001
200.026
199.978
200
200.047
200.033
199.985
200.007
200.005
200.714
200.606
200.638
200.634
204.552
204.184
204.303
204.289
208.19
207.56
207.764
207.741
224.763
222.498
223.191
223.57
197.044
191.271
191.716
191.554
191.426
190.817
197.904
197.997
197.97
197.94
198.134
199.135
199.147
199.148
199.148
)
;

boundaryField
{
    inlet
    {
        type            calculated;
        value           uniform 0;
    }
    outlet2
    {
        type            calculated;
        value           uniform 0;
    }
    outlet1
    {
        type            calculated;
        value           nonuniform List<scalar> 0();
    }
    wall
    {
        type            calculated;
        value           uniform 0;
    }
    symmetryBottom
    {
        type            symmetry;
    }
    symmetryZ0
    {
        type            symmetry;
    }
    symmetryZ05
    {
        type            symmetry;
    }
    procBoundary1to0
    {
        type            processor;
        value           uniform 0;
    }
}


// ************************************************************************* //
