/*--------------------------------*- C++ -*----------------------------------*\
| =========                 |                                                 |
| \\      /  F ield         | OpenFOAM: The Open Source CFD Toolbox           |
|  \\    /   O peration     | Version:  2412                                  |
|   \\  /    A nd           | Website:  www.openfoam.com                      |
|    \\/     M anipulation  |                                                 |
\*---------------------------------------------------------------------------*/
FoamFile
{
    version     2.0;
    format      ascii;
    arch        "LSB;label=32;scalar=64";
    class       volVectorField;
    location    "8e-06";
    object      U;
}
// * * * * * * * * * * * * * * * * * * * * * * * * * * * * * * * * * * * * * //

dimensions      [0 0 0 0 0 0 0];

internalField   nonuniform List<vector> 
84
(
(2636.39 -0.0326379 0)
(2460.6 -0.398461 0)
(2624.1 -0.0679566 -1.19277e-14)
(2636.39 -5.83938 0)
(2461.13 -14.7773 0)
(2624.1 -7.76375 -1.20006e-14)
(2636.39 -5.80911 0)
(2461.09 -14.6827 0)
(2624.1 -7.72019 1.61714e-14)
(2636.39 -5.80911 0)
(2461.09 -14.6827 0)
(2624.1 -7.72018 -2.31777e-14)
(2636.39 -5.80911 0)
(2461.09 -14.6827 0)
(2624.1 -7.72018 -3.53322e-14)
(2636.39 -5.80911 0)
(2461.09 -14.6827 0)
(2624.1 -7.72018 2.26415e-14)
(2636.39 -5.80911 0)
(2461.09 -14.6827 0)
(2624.1 -7.72018 -2.6752e-14)
(2636.39 -5.80911 0)
(2461.09 -14.6827 0)
(2624.1 -7.72018 -3.02263e-14)
(2636.39 -5.80911 0)
(2461.09 -14.6827 0)
(2624.1 -7.72018 1.20822e-14)
(2636.39 -5.80911 0)
(2461.09 -14.6827 0)
(2624.1 -7.72018 -2.69378e-14)
(2636.39 -5.80912 0)
(2461.09 -14.6794 0)
(2624.1 -7.71994 -7.00852e-14)
(2636.39 -5.80977 0)
(2460.93 -14.4149 0)
(2624.1 -7.70181 0)
(2628.67 8.44767 1.14075e-15)
(2626.31 7.82871 9.91116e-15)
(2626.85 7.88818 1.0496e-15)
(2631.54 -8.15458 1.02651e-15)
(2628.97 -8.28428 1.02516e-14)
(2629.54 -8.26265 -3.49054e-16)
(2631.41 -8.15856 -1.4339e-15)
(2628.85 -8.28556 -4.91683e-15)
(2629.42 -8.25194 -1.43905e-14)
(2631.29 -8.16037 1.90813e-15)
(2628.74 -8.28707 -3.58779e-16)
(2629.17 -8.40102 3.21726e-17)
(2627.95 0.901165 1.27151e-14)
(2631.16 -8.16565 -1.76633e-15)
(2628.63 -8.2917 8.42375e-17)
(2629.06 -8.40588 -1.56582e-16)
(2629.17 -8.38821 1.19256e-14)
(2630.99 -7.89659 -1.90497e-15)
(2628.47 -8.04635 -9.90926e-15)
(2628.9 -8.15761 1.0461e-15)
(2629.01 -8.14058 1.11018e-14)
(2630.69 -6.23016 2.23722e-15)
(2628.16 -6.49141 -3.35844e-16)
(2628.58 -6.56616 4.35089e-17)
(2628.69 -6.55336 -8.95116e-17)
(2630.48 -5.24315 2.70454e-15)
(2627.93 -5.56744 -1.0498e-14)
(2628.35 -5.62287 1.15509e-14)
(2628.46 -5.60282 1.99266e-16)
(2630.2 -4.55269 -1.09081e-15)
(2627.51 -4.92351 -1.28548e-14)
(2627.96 -4.96129 -1.16687e-14)
(2627.91 -5.03546 1.44229e-14)
(2627.92 0.940299 8.51834e-14)
(2630.44 -4.37913 2.38752e-15)
(2628.1 -4.76493 -1.28474e-14)
(2628.48 -4.79479 1.14539e-14)
(2628.45 -4.86365 1.77595e-14)
(2628.61 -4.90671 1.25204e-14)
(2630.32 -5.10756 6.11412e-15)
(2627.91 -5.43848 -6.21998e-16)
(2628.31 -5.48653 5.89074e-17)
(2628.27 -5.5758 -4.25082e-17)
(2628.47 -6.15723 -1.27444e-14)
(2630.23 -6.25662 1.04285e-17)
(2627.83 -6.49936 1.28371e-14)
(2628.22 -6.57291 -1.9425e-15)
(2628.34 -6.55554 -1.82252e-14)
)
;

boundaryField
{
    inlet
    {
        type            calculated;
        value           uniform (0 0 0);
    }
    outlet2
    {
        type            calculated;
        value           uniform (0 0 0);
    }
    outlet1
    {
        type            calculated;
        value           nonuniform List<vector> 0();
    }
    wall
    {
        type            calculated;
        value           uniform (0 0 0);
    }
    symmetryBottom
    {
        type            symmetry;
    }
    symmetryZ0
    {
        type            symmetry;
    }
    symmetryZ05
    {
        type            symmetry;
    }
    procBoundary1to0
    {
        type            processor;
        value           uniform (0 0 0);
    }
}


// ************************************************************************* //
