/*--------------------------------*- C++ -*----------------------------------*\
| =========                 |                                                 |
| \\      /  F ield         | OpenFOAM: The Open Source CFD Toolbox           |
|  \\    /   O peration     | Version:  2412                                  |
|   \\  /    A nd           | Website:  www.openfoam.com                      |
|    \\/     M anipulation  |                                                 |
\*---------------------------------------------------------------------------*/
FoamFile
{
    version     2.0;
    format      ascii;
    arch        "LSB;label=32;scalar=64";
    class       volScalarField;
    location    "3.3e-06";
    object      rho;
}
// * * * * * * * * * * * * * * * * * * * * * * * * * * * * * * * * * * * * * //

dimensions      [0 0 0 0 0 0 0];

internalField   nonuniform List<scalar> 
84
(
2.79363e-05
2.24569e-05
2.27463e-05
2.27369e-05
2.27377e-05
2.27383e-05
2.27389e-05
2.28198e-05
2.87808e-05
2.31507e-05
2.34587e-05
2.34599e-05
2.34719e-05
2.34839e-05
2.34964e-05
2.35793e-05
2.86509e-05
2.31155e-05
2.33818e-05
2.33844e-05
2.33951e-05
2.34059e-05
2.34171e-05
2.34998e-05
2.85815e-05
2.30154e-05
2.3319e-05
2.33183e-05
2.33281e-05
2.33381e-05
2.34206e-05
2.85283e-05
2.2941e-05
2.32438e-05
2.32419e-05
2.32505e-05
2.32592e-05
2.33415e-05
2.84395e-05
2.28678e-05
2.31687e-05
2.31656e-05
2.3173e-05
2.31804e-05
2.32625e-05
2.83506e-05
2.27949e-05
2.30936e-05
2.30894e-05
2.30956e-05
2.31018e-05
2.31837e-05
2.82402e-05
2.27435e-05
2.30181e-05
2.30141e-05
2.30191e-05
2.3024e-05
2.31057e-05
2.81578e-05
2.26523e-05
2.29466e-05
2.29401e-05
2.2944e-05
2.30255e-05
2.80932e-05
2.25821e-05
2.28753e-05
2.28678e-05
2.28706e-05
2.29519e-05
2.7992e-05
2.25085e-05
2.27988e-05
2.27902e-05
2.27917e-05
2.28728e-05
2.78203e-05
2.24478e-05
2.27239e-05
2.27148e-05
2.27151e-05
2.27152e-05
2.27961e-05
)
;

boundaryField
{
    inlet
    {
        type            calculated;
        value           nonuniform List<scalar> 0();
    }
    outlet2
    {
        type            calculated;
        value           uniform 0;
    }
    outlet1
    {
        type            calculated;
        value           uniform 0;
    }
    wall
    {
        type            calculated;
        value           uniform 0;
    }
    symmetryBottom
    {
        type            symmetry;
    }
    symmetryZ0
    {
        type            symmetry;
    }
    symmetryZ05
    {
        type            symmetry;
    }
    procBoundary0to1
    {
        type            processor;
        value           uniform 0;
    }
}


// ************************************************************************* //
