/*--------------------------------*- C++ -*----------------------------------*\
| =========                 |                                                 |
| \\      /  F ield         | OpenFOAM: The Open Source CFD Toolbox           |
|  \\    /   O peration     | Version:  2412                                  |
|   \\  /    A nd           | Website:  www.openfoam.com                      |
|    \\/     M anipulation  |                                                 |
\*---------------------------------------------------------------------------*/
FoamFile
{
    version     2.0;
    format      ascii;
    arch        "LSB;label=32;scalar=64";
    class       volScalarField;
    location    "7.5e-06";
    object      E_dof0;
}
// * * * * * * * * * * * * * * * * * * * * * * * * * * * * * * * * * * * * * //

dimensions      [0 0 0 0 0 0 0];

internalField   nonuniform List<scalar> 
84
(
99.4419
9.54688
33.7395
99.4861
9.57189
33.7672
99.4748
9.56895
33.7616
99.4748
9.56895
33.7616
99.4748
9.56895
33.7616
99.4748
9.56895
33.7616
99.4748
9.56895
33.7616
99.4748
9.56895
33.7616
99.4748
9.56895
33.7616
99.4748
9.56895
33.7616
99.4748
9.56888
33.7616
99.4751
9.56248
33.759
65.5599
60.686
61.6001
70.3805
64.8426
65.8469
69.868
64.4004
65.3886
69.3584
63.9612
64.5025
60.5475
68.8514
63.5242
64.0519
64.5221
68.3465
63.0889
63.6031
64.0712
67.8538
62.6633
63.1645
63.6304
67.3761
62.2502
62.7391
63.1991
66.9324
61.8607
62.339
62.3309
60.8083
66.3331
61.3571
61.8175
61.8023
62.2824
65.8607
60.9478
61.396
61.377
62.033
65.3964
60.546
60.9824
61.436
)
;

boundaryField
{
    inlet
    {
        type            calculated;
        value           uniform 99.4306;
    }
    outlet2
    {
        type            calculated;
        value           uniform 99.4306;
    }
    outlet1
    {
        type            calculated;
        value           nonuniform List<scalar> 0();
    }
    wall
    {
        type            calculated;
        value           uniform 99.4306;
    }
    symmetryBottom
    {
        type            symmetry;
    }
    symmetryZ0
    {
        type            symmetry;
    }
    symmetryZ05
    {
        type            symmetry;
    }
    procBoundary1to0
    {
        type            processor;
        value           uniform 99.4306;
    }
}


// ************************************************************************* //
