/*--------------------------------*- C++ -*----------------------------------*\
| =========                 |                                                 |
| \\      /  F ield         | OpenFOAM: The Open Source CFD Toolbox           |
|  \\    /   O peration     | Version:  2412                                  |
|   \\  /    A nd           | Website:  www.openfoam.com                      |
|    \\/     M anipulation  |                                                 |
\*---------------------------------------------------------------------------*/
FoamFile
{
    version     2.0;
    format      ascii;
    arch        "LSB;label=32;scalar=64";
    class       volVectorField;
    location    "7.5e-06";
    object      rhoU_dof0;
}
// * * * * * * * * * * * * * * * * * * * * * * * * * * * * * * * * * * * * * //

dimensions      [0 0 0 0 0 0 0];

internalField   nonuniform List<vector> 
84
(
(0.0741132 -8.25033e-07 0)
(0.00739739 -6.85758e-07 0)
(0.0252612 -6.04381e-07 -1.13216e-19)
(0.0741462 -0.000156882 0)
(0.00741634 -3.18413e-05 0)
(0.025282 -7.05458e-05 -1.13984e-19)
(0.0741379 -0.000156094 0)
(0.00741411 -3.16451e-05 0)
(0.0252778 -7.01603e-05 1.5222e-19)
(0.0741379 -0.000156094 0)
(0.00741411 -3.16451e-05 0)
(0.0252778 -7.01603e-05 -2.13325e-19)
(0.0741379 -0.000156094 0)
(0.00741411 -3.16451e-05 0)
(0.0252778 -7.01603e-05 -3.25599e-19)
(0.0741379 -0.000156094 0)
(0.00741411 -3.16451e-05 0)
(0.0252778 -7.01603e-05 2.09996e-19)
(0.0741379 -0.000156094 0)
(0.00741411 -3.16451e-05 0)
(0.0252778 -7.01603e-05 -2.43765e-19)
(0.0741379 -0.000156094 0)
(0.00741411 -3.16451e-05 0)
(0.0252778 -7.01603e-05 -2.74865e-19)
(0.0741379 -0.000156094 0)
(0.00741411 -3.16451e-05 0)
(0.0252778 -7.01603e-05 1.13939e-19)
(0.0741379 -0.000156094 0)
(0.00741411 -3.1645e-05 0)
(0.0252778 -7.01603e-05 -2.4467e-19)
(0.0741379 -0.000156094 0)
(0.00741406 -3.16397e-05 0)
(0.0252778 -7.0158e-05 -6.42742e-19)
(0.0741381 -0.000156112 0)
(0.0074093 -3.11753e-05 0)
(0.0252759 -6.99732e-05 0)
(0.0489707 0.000147534 1.92456e-20)
(0.0453669 0.000127321 1.57912e-19)
(0.0460423 0.000130042 1.69843e-20)
(0.052542 -0.000152619 1.85986e-20)
(0.048449 -0.000143093 1.77273e-19)
(0.0491906 -0.000144907 -5.74639e-21)
(0.0521617 -0.000151591 -2.58587e-20)
(0.0481204 -0.000142151 -8.50464e-20)
(0.0488502 -0.000143739 -2.56879e-19)
(0.0517835 -0.000150532 3.38872e-20)
(0.0477942 -0.000141219 -5.69081e-21)
(0.0481922 -0.000144341 4.88619e-22)
(0.0452561 1.35026e-05 2.11825e-19)
(0.0514072 -0.000149537 -3.30631e-20)
(0.0474694 -0.000140341 1.37718e-21)
(0.0478575 -0.000143424 -2.65607e-21)
(0.0482069 -0.000144181 2.13124e-19)
(0.0510302 -0.000143336 -3.33288e-20)
(0.0471441 -0.000135046 -1.67456e-19)
(0.0475222 -0.000138001 1.61497e-20)
(0.04787 -0.000138733 1.90747e-19)
(0.0506517 -0.000112361 3.87986e-20)
(0.0468175 -0.000108193 -5.01937e-21)
(0.0471855 -0.00011032 5.38316e-22)
(0.0475317 -0.00011092 -1.49364e-21)
(0.0502838 -9.38064e-05 4.67525e-20)
(0.0464996 -9.20428e-05 -1.71147e-19)
(0.046858 -9.37085e-05 1.93314e-19)
(0.0471998 -9.40717e-05 3.17502e-21)
(0.0498907 -8.10717e-05 -1.87233e-20)
(0.0461588 -8.09655e-05 -2.15608e-19)
(0.046507 -8.22529e-05 -2.04291e-19)
(0.0465002 -8.34641e-05 2.43566e-19)
(0.045462 1.41788e-05 1.38834e-18)
(0.0495751 -7.7777e-05 4.05184e-20)
(0.0458903 -7.81139e-05 -2.19766e-19)
(0.0462298 -7.92505e-05 1.87981e-19)
(0.0462193 -8.0367e-05 2.98274e-19)
(0.046578 -8.16341e-05 2.11008e-19)
(0.0491972 -8.97852e-05 1.02847e-19)
(0.0455632 -8.84112e-05 -8.90196e-21)
(0.0458929 -8.98829e-05 8.45245e-22)
(0.0458792 -9.13029e-05 -6.39007e-22)
(0.0463658 -0.0001012 -2.17975e-19)
(0.0488468 -0.000109126 1.8145e-22)
(0.0452597 -0.000105008 2.17167e-19)
(0.0455805 -0.000106971 -2.96005e-20)
(0.0459177 -0.00010749 -3.03055e-19)
)
;

boundaryField
{
    inlet
    {
        type            calculated;
        value           uniform (0.0741049 0 0);
    }
    outlet2
    {
        type            calculated;
        value           uniform (0.0741049 0 0);
    }
    outlet1
    {
        type            calculated;
        value           nonuniform List<vector> 0();
    }
    wall
    {
        type            calculated;
        value           uniform (0.0741049 0 0);
    }
    symmetryBottom
    {
        type            symmetry;
    }
    symmetryZ0
    {
        type            symmetry;
    }
    symmetryZ05
    {
        type            symmetry;
    }
    procBoundary1to0
    {
        type            processor;
        value           uniform (0.0741049 0 0);
    }
}


// ************************************************************************* //
