/*--------------------------------*- C++ -*----------------------------------*\
| =========                 |                                                 |
| \\      /  F ield         | OpenFOAM: The Open Source CFD Toolbox           |
|  \\    /   O peration     | Version:  2412                                  |
|   \\  /    A nd           | Website:  www.openfoam.com                      |
|    \\/     M anipulation  |                                                 |
\*---------------------------------------------------------------------------*/
FoamFile
{
    version     2.0;
    format      ascii;
    arch        "LSB;label=32;scalar=64";
    class       volScalarField;
    location    "7.5e-06";
    object      T;
}
// * * * * * * * * * * * * * * * * * * * * * * * * * * * * * * * * * * * * * //

dimensions      [0 0 0 0 0 0 0];

internalField   nonuniform List<scalar> 
84
(
200.015
185.313
200.423
199.965
185.083
200.324
199.951
185.051
200.305
199.951
185.051
200.305
199.951
185.051
200.305
199.951
185.051
200.305
199.951
185.051
200.305
199.951
185.051
200.305
199.951
185.051
200.305
199.951
185.051
200.305
199.951
185.05
200.305
199.952
184.963
200.296
204.784
204.438
204.482
200.025
199.981
200
200.026
199.981
200.001
200.026
199.981
199.999
200.042
200.033
199.988
200.006
200.004
200.69
200.592
200.619
200.616
204.258
203.931
204.036
204.024
207.636
207.08
207.261
207.241
222.754
220.833
221.426
221.774
197.442
191.857
192.254
192.106
191.986
191.474
198.051
198.131
198.105
198.078
198.249
199.197
199.205
199.204
199.205
)
;

boundaryField
{
    inlet
    {
        type            calculated;
        value           uniform 0;
    }
    outlet2
    {
        type            calculated;
        value           uniform 0;
    }
    outlet1
    {
        type            calculated;
        value           nonuniform List<scalar> 0();
    }
    wall
    {
        type            calculated;
        value           uniform 0;
    }
    symmetryBottom
    {
        type            symmetry;
    }
    symmetryZ0
    {
        type            symmetry;
    }
    symmetryZ05
    {
        type            symmetry;
    }
    procBoundary1to0
    {
        type            processor;
        value           uniform 0;
    }
}


// ************************************************************************* //
