/*--------------------------------*- C++ -*----------------------------------*\
| =========                 |                                                 |
| \\      /  F ield         | OpenFOAM: The Open Source CFD Toolbox           |
|  \\    /   O peration     | Version:  2412                                  |
|   \\  /    A nd           | Website:  www.openfoam.com                      |
|    \\/     M anipulation  |                                                 |
\*---------------------------------------------------------------------------*/
FoamFile
{
    version     2.0;
    format      ascii;
    arch        "LSB;label=32;scalar=64";
    class       volScalarField;
    location    "6e-07";
    object      E_dof0;
}
// * * * * * * * * * * * * * * * * * * * * * * * * * * * * * * * * * * * * * //

dimensions      [0 0 0 0 0 0 0];

internalField   nonuniform List<scalar> 
84
(
99.4307
90.0734
90.2614
99.431
90.0754
90.2634
99.4309
90.0753
90.2633
99.4309
90.0753
90.2633
99.4309
90.0753
90.2633
99.4309
90.0753
90.2633
99.4309
90.0753
90.2633
99.4309
90.0753
90.2633
99.4309
90.0753
90.2633
99.4309
90.0753
90.2633
99.4309
90.0753
90.2633
99.4309
90.0746
90.2626
95.6561
95.6106
95.664
96.1768
96.1341
96.1877
96.124
96.081
96.1346
96.0712
96.028
96.0342
95.6019
96.0184
95.9749
95.9804
96.0345
95.9661
95.9222
95.927
95.9811
95.9149
95.8707
95.8748
95.9288
95.864
95.8196
95.8229
95.8769
95.8188
95.7741
95.7767
95.7792
95.6035
95.7499
95.7049
95.7065
95.708
95.7627
95.7013
95.656
95.6569
95.6577
95.7133
95.6496
95.604
95.6042
95.6581
)
;

boundaryField
{
    inlet
    {
        type            calculated;
        value           uniform 99.4306;
    }
    outlet2
    {
        type            calculated;
        value           uniform 99.4306;
    }
    outlet1
    {
        type            calculated;
        value           nonuniform List<scalar> 0();
    }
    wall
    {
        type            calculated;
        value           uniform 99.4306;
    }
    symmetryBottom
    {
        type            symmetry;
    }
    symmetryZ0
    {
        type            symmetry;
    }
    symmetryZ05
    {
        type            symmetry;
    }
    procBoundary1to0
    {
        type            processor;
        value           uniform 99.4306;
    }
}


// ************************************************************************* //
