/*--------------------------------*- C++ -*----------------------------------*\
| =========                 |                                                 |
| \\      /  F ield         | OpenFOAM: The Open Source CFD Toolbox           |
|  \\    /   O peration     | Version:  2412                                  |
|   \\  /    A nd           | Website:  www.openfoam.com                      |
|    \\/     M anipulation  |                                                 |
\*---------------------------------------------------------------------------*/
FoamFile
{
    version     2.0;
    format      ascii;
    arch        "LSB;label=32;scalar=64";
    class       volScalarField;
    location    "9.1e-06";
    object      E;
}
// * * * * * * * * * * * * * * * * * * * * * * * * * * * * * * * * * * * * * //

dimensions      [0 0 0 0 0 0 0];

internalField   nonuniform List<scalar> 
84
(
118.267
8.22932
17.7857
118.307
8.31087
17.1153
118.331
8.30466
17.202
118.332
8.29502
17.2894
118.333
8.28539
17.3767
118.334
8.27581
17.4634
118.335
8.26626
17.5497
118.335
8.25676
17.6355
118.336
8.24729
17.7208
118.337
8.23786
17.8057
118.338
8.22843
17.89
118.34
8.21893
17.9739
59.281
55.742
53.0825
63.4467
59.5253
56.6745
62.971
59.0922
56.3138
62.4347
58.458
59.2679
50.3725
61.8971
57.9903
58.3852
55.3151
61.3645
57.5089
57.8849
54.9162
60.8363
57.0312
57.395
54.455
60.3125
56.5574
56.9083
54.0185
59.7929
56.0911
56.3012
56.6176
51.1079
59.2777
55.6247
55.8334
55.9598
53.0872
58.7668
55.1624
55.3616
55.4739
52.6982
58.2604
54.7011
55.0038
52.2688
)
;

boundaryField
{
    inlet
    {
        type            calculated;
        value           uniform 0;
    }
    outlet2
    {
        type            calculated;
        value           uniform 0;
    }
    outlet1
    {
        type            calculated;
        value           nonuniform List<scalar> 0();
    }
    wall
    {
        type            calculated;
        value           uniform 0;
    }
    symmetryBottom
    {
        type            symmetry;
    }
    symmetryZ0
    {
        type            symmetry;
    }
    symmetryZ05
    {
        type            symmetry;
    }
    procBoundary1to0
    {
        type            processor;
        value           uniform 0;
    }
}


// ************************************************************************* //
