/*--------------------------------*- C++ -*----------------------------------*\
| =========                 |                                                 |
| \\      /  F ield         | OpenFOAM: The Open Source CFD Toolbox           |
|  \\    /   O peration     | Version:  2412                                  |
|   \\  /    A nd           | Website:  www.openfoam.com                      |
|    \\/     M anipulation  |                                                 |
\*---------------------------------------------------------------------------*/
FoamFile
{
    version     2.0;
    format      ascii;
    arch        "LSB;label=32;scalar=64";
    class       volVectorField;
    location    "9.1e-06";
    object      U;
}
// * * * * * * * * * * * * * * * * * * * * * * * * * * * * * * * * * * * * * //

dimensions      [0 0 0 0 0 0 0];

internalField   nonuniform List<vector> 
84
(
(2640.64 0.00560441 -1.06661e-16)
(2536.43 -0.177438 9.90426e-15)
(2603.04 0.0219878 -2.39255e-14)
(2640.64 -7.6948 -1.12884e-16)
(2537.59 -11.6511 1.03523e-14)
(2600.75 -9.40582 -2.6e-14)
(2640.64 -7.69482 1.48319e-16)
(2537.46 -11.6713 -1.35901e-14)
(2601.02 -9.31613 3.38419e-14)
(2640.64 -7.69506 -1.93678e-16)
(2537.31 -11.675 1.77639e-14)
(2601.31 -9.31351 -4.43635e-14)
(2640.64 -7.69507 -3.43919e-16)
(2537.17 -11.678 3.13188e-14)
(2601.59 -9.31178 -7.58154e-14)
(2640.64 -7.69507 1.8836e-16)
(2537.02 -11.681 -1.71866e-14)
(2601.87 -9.30987 4.18976e-14)
(2640.64 -7.69508 -2.52351e-16)
(2536.88 -11.684 2.31846e-14)
(2602.15 -9.30798 -5.61565e-14)
(2640.64 -7.69508 -2.92876e-16)
(2536.74 -11.687 2.6914e-14)
(2602.42 -9.30612 -6.49831e-14)
(2640.64 -7.69509 1.08972e-16)
(2536.6 -11.69 -9.98988e-15)
(2602.68 -9.3043 2.36852e-14)
(2640.64 -7.6951 -2.49134e-16)
(2536.45 -11.693 2.32006e-14)
(2602.94 -9.30249 -5.63116e-14)
(2640.64 -7.69511 -6.45483e-16)
(2536.31 -11.696 5.98695e-14)
(2603.2 -9.30072 -1.43103e-13)
(2640.64 -7.70176 2.08772e-19)
(2536.17 -11.5414 -5.45191e-17)
(2603.46 -9.24046 3.96364e-16)
(2628.64 -0.177979 -1.21587e-16)
(2626.82 -0.179734 1.19845e-14)
(2624.84 -0.181677 -1.46795e-15)
(2630.16 -9.10983 -8.31422e-17)
(2628.28 -9.27521 1.14218e-14)
(2626.32 -9.22949 -1.61211e-15)
(2630.05 -9.27335 -6.19384e-16)
(2628.18 -9.4324 -3.96486e-15)
(2626.26 -9.49712 -1.72509e-14)
(2629.91 -9.27817 1.20985e-15)
(2627.91 -9.39189 -2.19784e-16)
(2628.45 -10.3368 -1.614e-15)
(2623.89 3.30042 2.58146e-14)
(2629.77 -9.27846 -2.86697e-15)
(2627.8 -9.42772 1.23742e-16)
(2628.1 -9.59298 -1.59862e-15)
(2625.92 -9.31075 2.08613e-14)
(2629.63 -9.27979 -4.1335e-16)
(2627.67 -9.42995 -1.15109e-14)
(2627.97 -9.57543 -4.26206e-16)
(2625.82 -9.52489 1.42812e-14)
(2629.49 -9.28115 1.56864e-15)
(2627.54 -9.43123 -2.24096e-16)
(2627.83 -9.57652 -1.04139e-16)
(2625.69 -9.5291 -1.09956e-17)
(2629.35 -9.28251 2.77995e-15)
(2627.4 -9.43262 -1.28716e-14)
(2627.7 -9.57385 1.2239e-14)
(2625.58 -9.62794 6.71962e-17)
(2629.21 -9.28382 5.49358e-16)
(2627.28 -9.43566 -1.61937e-14)
(2627.44 -9.52828 -1.70094e-14)
(2627.66 -10.5336 1.01574e-14)
(2624.45 3.18687 1.22823e-13)
(2629.07 -9.28521 2.95949e-15)
(2627.15 -9.43568 -1.83508e-14)
(2627.31 -9.56691 1.11602e-14)
(2627.42 -9.72726 2.67035e-14)
(2625.29 -9.57665 1.94334e-14)
(2628.93 -9.28659 4.40525e-15)
(2627.02 -9.43685 -2.81264e-16)
(2627.18 -9.57178 3.18606e-18)
(2627.28 -9.64601 1.2013e-15)
(2625.2 -10.7056 -1.57639e-14)
(2628.79 -9.28569 -1.26976e-15)
(2626.88 -9.4334 1.81104e-14)
(2627.16 -9.52719 8.25224e-16)
(2625.07 -10.7132 -3.05589e-14)
)
;

boundaryField
{
    inlet
    {
        type            calculated;
        value           uniform (0 0 0);
    }
    outlet2
    {
        type            calculated;
        value           uniform (0 0 0);
    }
    outlet1
    {
        type            calculated;
        value           nonuniform List<vector> 0();
    }
    wall
    {
        type            calculated;
        value           uniform (0 0 0);
    }
    symmetryBottom
    {
        type            symmetry;
    }
    symmetryZ0
    {
        type            symmetry;
    }
    symmetryZ05
    {
        type            symmetry;
    }
    procBoundary1to0
    {
        type            processor;
        value           uniform (0 0 0);
    }
}


// ************************************************************************* //
