/*--------------------------------*- C++ -*----------------------------------*\
| =========                 |                                                 |
| \\      /  F ield         | OpenFOAM: The Open Source CFD Toolbox           |
|  \\    /   O peration     | Version:  2412                                  |
|   \\  /    A nd           | Website:  www.openfoam.com                      |
|    \\/     M anipulation  |                                                 |
\*---------------------------------------------------------------------------*/
FoamFile
{
    version     2.0;
    format      ascii;
    arch        "LSB;label=32;scalar=64";
    class       volScalarField;
    location    "6.5e-06";
    object      E_dof0;
}
// * * * * * * * * * * * * * * * * * * * * * * * * * * * * * * * * * * * * * //

dimensions      [0 0 0 0 0 0 0];

internalField   nonuniform List<scalar> 
84
(
99.4394
18.633
37.7228
99.4743
18.6583
37.7479
99.4655
18.6551
37.7432
99.4655
18.6551
37.7432
99.4655
18.6551
37.7432
99.4655
18.6551
37.7432
99.4655
18.6551
37.7432
99.4655
18.6551
37.7432
99.4655
18.6551
37.7432
99.4655
18.6551
37.7432
99.4655
18.6551
37.7432
99.4657
18.6492
37.7403
68.8572
64.8868
65.6232
73.2103
68.7415
69.54
72.7507
68.3342
69.1212
72.2933
67.9293
68.3138
64.7337
71.8378
67.5261
67.9
68.3352
71.3846
67.1247
67.4881
67.9215
70.9421
66.7322
67.0855
67.5172
70.5115
66.35
66.6937
67.1206
70.1138
65.9927
66.3279
66.33
64.9385
69.5678
65.5193
65.8408
65.836
66.2735
69.1444
65.1427
65.4547
65.4461
66.0199
68.7233
64.7685
65.0712
65.4927
)
;

boundaryField
{
    inlet
    {
        type            calculated;
        value           uniform 99.4306;
    }
    outlet2
    {
        type            calculated;
        value           uniform 99.4306;
    }
    outlet1
    {
        type            calculated;
        value           nonuniform List<scalar> 0();
    }
    wall
    {
        type            calculated;
        value           uniform 99.4306;
    }
    symmetryBottom
    {
        type            symmetry;
    }
    symmetryZ0
    {
        type            symmetry;
    }
    symmetryZ05
    {
        type            symmetry;
    }
    procBoundary1to0
    {
        type            processor;
        value           uniform 99.4306;
    }
}


// ************************************************************************* //
