/*--------------------------------*- C++ -*----------------------------------*\
| =========                 |                                                 |
| \\      /  F ield         | OpenFOAM: The Open Source CFD Toolbox           |
|  \\    /   O peration     | Version:  2412                                  |
|   \\  /    A nd           | Website:  www.openfoam.com                      |
|    \\/     M anipulation  |                                                 |
\*---------------------------------------------------------------------------*/
FoamFile
{
    version     2.0;
    format      ascii;
    arch        "LSB;label=32;scalar=64";
    class       volVectorField;
    location    "6.5e-06";
    object      rhoU_dof0;
}
// * * * * * * * * * * * * * * * * * * * * * * * * * * * * * * * * * * * * * //

dimensions      [0 0 0 0 0 0 0];

internalField   nonuniform List<vector> 
84
(
(0.0741114 -6.48035e-07 0)
(0.0141515 -6.6827e-07 0)
(0.0282437 -5.62481e-07 -1.19455e-19)
(0.0741375 -0.000141213 0)
(0.0141707 -4.25013e-05 0)
(0.0282625 -6.90429e-05 -1.17104e-19)
(0.0741309 -0.000140586 0)
(0.0141683 -4.22842e-05 0)
(0.028259 -6.87124e-05 1.59248e-19)
(0.0741309 -0.000140586 0)
(0.0141683 -4.22841e-05 0)
(0.028259 -6.87123e-05 -2.13273e-19)
(0.0741309 -0.000140586 0)
(0.0141683 -4.22841e-05 0)
(0.028259 -6.87123e-05 -3.24023e-19)
(0.0741309 -0.000140586 0)
(0.0141683 -4.22841e-05 0)
(0.028259 -6.87123e-05 2.09215e-19)
(0.0741309 -0.000140586 0)
(0.0141683 -4.22841e-05 0)
(0.028259 -6.87123e-05 -2.36689e-19)
(0.0741309 -0.000140586 0)
(0.0141683 -4.22841e-05 0)
(0.028259 -6.87123e-05 -2.69383e-19)
(0.0741309 -0.000140586 0)
(0.0141683 -4.22841e-05 0)
(0.028259 -6.87123e-05 1.18632e-19)
(0.0741309 -0.000140586 0)
(0.0141683 -4.22841e-05 0)
(0.028259 -6.87123e-05 -2.3678e-19)
(0.0741309 -0.000140586 0)
(0.0141682 -4.22798e-05 0)
(0.028259 -6.87102e-05 -6.35649e-19)
(0.0741311 -0.000140603 0)
(0.0141638 -4.18504e-05 0)
(0.0282569 -6.85039e-05 0)
(0.0514206 0.000134194 1.60062e-20)
(0.0484864 0.000118907 1.46163e-19)
(0.0490307 0.000120797 1.52008e-20)
(0.0546449 -0.000137537 1.54232e-20)
(0.0513436 -0.000131362 1.6047e-19)
(0.0519335 -0.000132584 -4.57582e-21)
(0.0543039 -0.000136739 -2.15531e-20)
(0.0510411 -0.000130614 -7.62168e-20)
(0.0516225 -0.000131665 -2.45268e-19)
(0.0539645 -0.000135919 2.79299e-20)
(0.0507404 -0.000129873 -4.51801e-21)
(0.0510231 -0.000132401 3.45236e-22)
(0.048366 1.0612e-05 2.09239e-19)
(0.0536265 -0.000135148 -3.15589e-20)
(0.0504409 -0.000129174 1.19033e-21)
(0.0507158 -0.000131675 -2.40533e-21)
(0.0510391 -0.000132282 2.13078e-19)
(0.053288 -0.000129283 -2.74734e-20)
(0.050141 -0.000124019 -1.53415e-19)
(0.0504081 -0.000126412 1.19941e-20)
(0.05073 -0.000126998 1.6629e-19)
(0.0529482 -0.000101643 3.21019e-20)
(0.0498398 -9.94303e-05 -3.62923e-21)
(0.0500991 -0.000101182 1.7036e-22)
(0.0504196 -0.00010166 -1.33042e-21)
(0.0526167 -8.48323e-05 3.9079e-20)
(0.0495457 -8.44349e-05 -1.53414e-19)
(0.0497976 -8.58198e-05 1.71113e-19)
(0.0501146 -8.6111e-05 2.59575e-21)
(0.0522664 -7.38498e-05 -1.55332e-20)
(0.0492339 -7.46333e-05 -2.10729e-19)
(0.0494778 -7.57333e-05 -2.04408e-19)
(0.0494785 -7.68494e-05 2.3152e-19)
(0.0485275 1.11692e-05 1.30025e-18)
(0.0519755 -7.1423e-05 3.36656e-20)
(0.0489793 -7.24685e-05 -2.14769e-19)
(0.0492164 -7.34643e-05 1.67793e-19)
(0.0492135 -7.45063e-05 2.86176e-19)
(0.0495399 -7.54792e-05 1.97394e-19)
(0.0516366 -8.2107e-05 8.48899e-20)
(0.0486782 -8.18915e-05 -6.2112e-21)
(0.0489076 -8.31439e-05 6.01325e-22)
(0.0489015 -8.44444e-05 -4.90631e-22)
(0.0493271 -9.21809e-05 -2.17975e-19)
(0.0513189 -9.97357e-05 1.64953e-22)
(0.0483957 -9.74377e-05 2.13493e-19)
(0.0486182 -9.90773e-05 -2.34363e-20)
(0.0489313 -9.94949e-05 -2.88305e-19)
)
;

boundaryField
{
    inlet
    {
        type            calculated;
        value           uniform (0.0741049 0 0);
    }
    outlet2
    {
        type            calculated;
        value           uniform (0.0741049 0 0);
    }
    outlet1
    {
        type            calculated;
        value           nonuniform List<vector> 0();
    }
    wall
    {
        type            calculated;
        value           uniform (0.0741049 0 0);
    }
    symmetryBottom
    {
        type            symmetry;
    }
    symmetryZ0
    {
        type            symmetry;
    }
    symmetryZ05
    {
        type            symmetry;
    }
    procBoundary1to0
    {
        type            processor;
        value           uniform (0.0741049 0 0);
    }
}


// ************************************************************************* //
