/*--------------------------------*- C++ -*----------------------------------*\
| =========                 |                                                 |
| \\      /  F ield         | OpenFOAM: The Open Source CFD Toolbox           |
|  \\    /   O peration     | Version:  2412                                  |
|   \\  /    A nd           | Website:  www.openfoam.com                      |
|    \\/     M anipulation  |                                                 |
\*---------------------------------------------------------------------------*/
FoamFile
{
    version     2.0;
    format      ascii;
    arch        "LSB;label=32;scalar=64";
    class       volVectorField;
    location    "6.5e-06";
    object      U;
}
// * * * * * * * * * * * * * * * * * * * * * * * * * * * * * * * * * * * * * //

dimensions      [0 0 0 0 0 0 0];

internalField   nonuniform List<vector> 
84
(
(2636.39 -0.0230527 0)
(2586.12 -0.122123 0)
(2623.82 -0.0522541 -1.10973e-14)
(2636.39 -5.02165 0)
(2586.15 -7.75651 0)
(2623.83 -6.40977 -1.08717e-14)
(2636.39 -4.99979 0)
(2586.15 -7.71818 0)
(2623.83 -6.37988 1.47861e-14)
(2636.39 -4.99979 0)
(2586.15 -7.71818 0)
(2623.83 -6.37988 -1.98022e-14)
(2636.39 -4.99979 0)
(2586.15 -7.71818 0)
(2623.83 -6.37988 -3.00852e-14)
(2636.39 -4.99979 0)
(2586.15 -7.71818 0)
(2623.83 -6.37988 1.94254e-14)
(2636.39 -4.99979 0)
(2586.15 -7.71818 0)
(2623.83 -6.37988 -2.19764e-14)
(2636.39 -4.99979 0)
(2586.15 -7.71818 0)
(2623.83 -6.37988 -2.5012e-14)
(2636.39 -4.99979 0)
(2586.15 -7.71818 0)
(2623.83 -6.37988 1.10149e-14)
(2636.39 -4.99979 0)
(2586.15 -7.71817 0)
(2623.83 -6.37988 -2.19848e-14)
(2636.39 -4.9998 0)
(2586.15 -7.71742 0)
(2623.83 -6.37969 -5.90195e-14)
(2636.39 -5.0004 0)
(2586.14 -7.64137 0)
(2623.83 -6.361 0)
(2629.97 6.86349 8.18654e-16)
(2628.3 6.4456 7.92307e-15)
(2628.63 6.47616 8.14944e-16)
(2632.27 -6.62522 7.42944e-16)
(2630.46 -6.73 8.2213e-15)
(2630.8 -6.71631 -2.31798e-16)
(2632.17 -6.62791 -1.0447e-15)
(2630.37 -6.73112 -3.92778e-15)
(2630.71 -6.70969 -1.2499e-14)
(2632.07 -6.62931 1.36225e-15)
(2630.28 -6.73234 -2.34204e-16)
(2630.51 -6.82596 1.77987e-17)
(2629.58 0.576954 1.1376e-14)
(2631.97 -6.63299 -1.54889e-15)
(2630.18 -6.73566 6.20682e-17)
(2630.42 -6.82942 -1.24754e-16)
(2630.52 -6.8177 1.09819e-14)
(2631.83 -6.38515 -1.35688e-15)
(2630.06 -6.5052 -8.0471e-15)
(2630.29 -6.59617 6.25851e-16)
(2630.39 -6.58496 8.62228e-15)
(2631.6 -5.05179 1.59551e-15)
(2629.81 -5.24648 -1.91498e-16)
(2630.04 -5.31171 8.94333e-18)
(2630.14 -5.30309 -6.94014e-17)
(2631.43 -4.24258 1.95439e-15)
(2629.64 -4.48139 -8.14247e-15)
(2629.87 -4.53224 9.03667e-15)
(2629.97 -4.51902 1.36222e-16)
(2631.24 -3.71781 -7.81985e-16)
(2629.36 -3.98583 -1.12541e-14)
(2629.6 -4.025 -1.08637e-14)
(2629.58 -4.08423 1.23043e-14)
(2629.55 0.605223 7.04565e-14)
(2631.38 -3.61596 1.7044e-15)
(2629.72 -3.89086 -1.1531e-14)
(2629.93 -3.92564 8.96617e-15)
(2629.91 -3.98153 1.52929e-14)
(2630.03 -4.00713 1.04795e-14)
(2631.29 -4.18399 4.3258e-15)
(2629.59 -4.42376 -3.35528e-16)
(2629.8 -4.47071 3.23337e-17)
(2629.79 -4.54118 -2.63848e-17)
(2629.93 -4.91473 -1.16216e-14)
(2631.22 -5.11366 8.45748e-18)
(2629.53 -5.29417 1.15999e-14)
(2629.74 -5.35905 -1.26766e-15)
(2629.84 -5.34741 -1.54951e-14)
)
;

boundaryField
{
    inlet
    {
        type            calculated;
        value           uniform (0 0 0);
    }
    outlet2
    {
        type            calculated;
        value           uniform (0 0 0);
    }
    outlet1
    {
        type            calculated;
        value           nonuniform List<vector> 0();
    }
    wall
    {
        type            calculated;
        value           uniform (0 0 0);
    }
    symmetryBottom
    {
        type            symmetry;
    }
    symmetryZ0
    {
        type            symmetry;
    }
    symmetryZ05
    {
        type            symmetry;
    }
    procBoundary1to0
    {
        type            processor;
        value           uniform (0 0 0);
    }
}


// ************************************************************************* //
