/*--------------------------------*- C++ -*----------------------------------*\
| =========                 |                                                 |
| \\      /  F ield         | OpenFOAM: The Open Source CFD Toolbox           |
|  \\    /   O peration     | Version:  2412                                  |
|   \\  /    A nd           | Website:  www.openfoam.com                      |
|    \\/     M anipulation  |                                                 |
\*---------------------------------------------------------------------------*/
FoamFile
{
    version     2.0;
    format      ascii;
    arch        "LSB;label=32;scalar=64";
    class       volScalarField;
    location    "8e-07";
    object      E;
}
// * * * * * * * * * * * * * * * * * * * * * * * * * * * * * * * * * * * * * //

dimensions      [0 0 0 0 0 0 0];

internalField   nonuniform List<scalar> 
84
(
99.4307
87.0539
87.4011
99.4313
87.0568
87.4038
99.4312
87.0567
87.4037
99.4312
87.0567
87.4037
99.4312
87.0567
87.4037
99.4312
87.0567
87.4037
99.4312
87.0567
87.4037
99.4312
87.0567
87.4037
99.4312
87.0567
87.4037
99.4312
87.0567
87.4037
99.4312
87.0567
87.4037
99.4312
87.0557
87.4028
94.4545
94.3707
94.4415
95.1422
95.0599
95.1311
95.0723
94.9899
95.061
95.0025
94.9199
94.9285
94.3574
94.9327
94.85
94.8576
94.929
94.8635
94.7806
94.7872
94.8586
94.7958
94.7127
94.7183
94.7897
94.7286
94.6453
94.65
94.7213
94.6687
94.5853
94.5891
94.5924
94.3606
94.5779
94.4944
94.4969
94.4989
94.571
94.5136
94.43
94.4315
94.4326
94.5065
94.4453
94.3615
94.3621
94.4333
)
;

boundaryField
{
    inlet
    {
        type            calculated;
        value           uniform 0;
    }
    outlet2
    {
        type            calculated;
        value           uniform 0;
    }
    outlet1
    {
        type            calculated;
        value           nonuniform List<scalar> 0();
    }
    wall
    {
        type            calculated;
        value           uniform 0;
    }
    symmetryBottom
    {
        type            symmetry;
    }
    symmetryZ0
    {
        type            symmetry;
    }
    symmetryZ05
    {
        type            symmetry;
    }
    procBoundary1to0
    {
        type            processor;
        value           uniform 0;
    }
}


// ************************************************************************* //
