/*--------------------------------*- C++ -*----------------------------------*\
| =========                 |                                                 |
| \\      /  F ield         | OpenFOAM: The Open Source CFD Toolbox           |
|  \\    /   O peration     | Version:  2412                                  |
|   \\  /    A nd           | Website:  www.openfoam.com                      |
|    \\/     M anipulation  |                                                 |
\*---------------------------------------------------------------------------*/
FoamFile
{
    version     2.0;
    format      ascii;
    arch        "LSB;label=32;scalar=64";
    class       volScalarField;
    location    "8e-07";
    object      rho;
}
// * * * * * * * * * * * * * * * * * * * * * * * * * * * * * * * * * * * * * //

dimensions      [0 0 0 0 0 0 0];

internalField   nonuniform List<scalar> 
84
(
2.81085e-05
2.46493e-05
2.47452e-05
2.81087e-05
2.46501e-05
2.4746e-05
2.81087e-05
2.465e-05
2.47459e-05
2.81087e-05
2.465e-05
2.47459e-05
2.81087e-05
2.465e-05
2.47459e-05
2.81087e-05
2.465e-05
2.47459e-05
2.81087e-05
2.465e-05
2.47459e-05
2.81087e-05
2.465e-05
2.47459e-05
2.81087e-05
2.465e-05
2.47459e-05
2.81087e-05
2.465e-05
2.47459e-05
2.81087e-05
2.465e-05
2.47459e-05
2.81087e-05
2.46498e-05
2.47457e-05
2.67194e-05
2.66963e-05
2.67161e-05
2.69097e-05
2.6887e-05
2.69069e-05
2.68902e-05
2.68674e-05
2.68873e-05
2.68707e-05
2.68479e-05
2.68503e-05
2.66907e-05
2.68512e-05
2.68283e-05
2.68305e-05
2.68504e-05
2.68317e-05
2.68088e-05
2.68106e-05
2.68306e-05
2.68122e-05
2.67893e-05
2.67909e-05
2.68108e-05
2.67928e-05
2.67698e-05
2.67711e-05
2.67911e-05
2.67733e-05
2.67503e-05
2.67513e-05
2.67522e-05
2.66916e-05
2.67541e-05
2.6731e-05
2.67318e-05
2.67323e-05
2.67525e-05
2.67346e-05
2.67115e-05
2.6712e-05
2.67123e-05
2.67329e-05
2.67152e-05
2.6692e-05
2.66922e-05
2.67121e-05
)
;

boundaryField
{
    inlet
    {
        type            calculated;
        value           uniform 0;
    }
    outlet2
    {
        type            calculated;
        value           uniform 0;
    }
    outlet1
    {
        type            calculated;
        value           nonuniform List<scalar> 0();
    }
    wall
    {
        type            calculated;
        value           uniform 0;
    }
    symmetryBottom
    {
        type            symmetry;
    }
    symmetryZ0
    {
        type            symmetry;
    }
    symmetryZ05
    {
        type            symmetry;
    }
    procBoundary1to0
    {
        type            processor;
        value           uniform 0;
    }
}


// ************************************************************************* //
