/*--------------------------------*- C++ -*----------------------------------*\
| =========                 |                                                 |
| \\      /  F ield         | OpenFOAM: The Open Source CFD Toolbox           |
|  \\    /   O peration     | Version:  2412                                  |
|   \\  /    A nd           | Website:  www.openfoam.com                      |
|    \\/     M anipulation  |                                                 |
\*---------------------------------------------------------------------------*/
FoamFile
{
    version     2.0;
    format      ascii;
    arch        "LSB;label=32;scalar=64";
    class       volVectorField;
    location    "8e-07";
    object      U;
}
// * * * * * * * * * * * * * * * * * * * * * * * * * * * * * * * * * * * * * //

dimensions      [0 0 0 0 0 0 0];

internalField   nonuniform List<vector> 
84
(
(2636.39 -0.000323238 0)
(2634.23 -0.00334302 0)
(2634.36 -0.00318727 -1.13568e-15)
(2636.39 -0.776157 0)
(2634.23 -0.811795 0)
(2634.36 -0.810598 -1.00946e-15)
(2636.39 -0.775702 0)
(2634.23 -0.811347 0)
(2634.36 -0.810149 1.76657e-15)
(2636.39 -0.775702 0)
(2634.23 -0.811347 0)
(2634.36 -0.810149 -2.33443e-15)
(2636.39 -0.775702 0)
(2634.23 -0.811347 0)
(2634.36 -0.810149 -3.97479e-15)
(2636.39 -0.775702 0)
(2634.23 -0.811347 0)
(2634.36 -0.810149 2.20821e-15)
(2636.39 -0.775702 0)
(2634.23 -0.811347 0)
(2634.36 -0.810149 -2.77607e-15)
(2636.39 -0.775702 0)
(2634.23 -0.811347 0)
(2634.36 -0.810149 -3.28079e-15)
(2636.39 -0.775702 0)
(2634.23 -0.811347 0)
(2634.36 -0.810149 1.19874e-15)
(2636.39 -0.775702 0)
(2634.23 -0.811347 0)
(2634.36 -0.810149 -2.7761e-15)
(2636.39 -0.775702 0)
(2634.23 -0.811345 0)
(2634.36 -0.810147 -7.12942e-15)
(2636.39 -0.775807 0)
(2634.23 -0.808466 0)
(2634.36 -0.807423 0)
(2635.45 0.825858 1.19411e-17)
(2635.42 0.828341 8.72706e-16)
(2635.43 0.828228 8.439e-17)
(2635.71 -0.816253 1.05415e-17)
(2635.68 -0.827888 9.15337e-16)
(2635.7 -0.827643 -2.13532e-18)
(2635.7 -0.816396 -1.80899e-17)
(2635.67 -0.828029 -3.37815e-16)
(2635.68 -0.827709 -1.80254e-15)
(2635.69 -0.816536 2.42902e-17)
(2635.66 -0.828171 -1.40676e-17)
(2635.66 -0.839928 1.47023e-19)
(2635.57 0.00556511 1.29127e-15)
(2635.68 -0.816668 -5.27544e-16)
(2635.65 -0.828304 -7.517e-18)
(2635.65 -0.840065 -1.40013e-17)
(2635.66 -0.839816 1.18777e-15)
(2635.66 -0.774527 -2.28532e-17)
(2635.63 -0.786049 -9.16439e-16)
(2635.63 -0.797229 -1.52115e-17)
(2635.65 -0.796998 7.91857e-16)
(2635.64 -0.622956 2.33978e-17)
(2635.61 -0.633977 -6.75702e-19)
(2635.61 -0.642984 -6.90569e-18)
(2635.62 -0.642805 -7.1288e-18)
(2635.62 -0.523758 4.08403e-17)
(2635.59 -0.53446 -8.63609e-16)
(2635.59 -0.542054 9.49288e-16)
(2635.61 -0.541854 5.8128e-18)
(2635.61 -0.475556 -1.18731e-17)
(2635.58 -0.486082 -1.29754e-15)
(2635.58 -0.492974 -1.35674e-15)
(2635.58 -0.500089 1.41029e-15)
(2635.57 0.00616514 9.61526e-15)
(2635.61 -0.478708 3.27793e-17)
(2635.58 -0.489216 -1.45067e-15)
(2635.58 -0.496122 8.51276e-16)
(2635.58 -0.503253 2.27661e-15)
(2635.59 -0.503445 1.41222e-15)
(2635.6 -0.537794 8.06914e-17)
(2635.57 -0.548495 -3.79287e-19)
(2635.57 -0.556259 1.7615e-18)
(2635.57 -0.564324 3.29079e-19)
(2635.58 -0.567905 -1.2583e-15)
(2635.59 -0.648117 1.01418e-18)
(2635.57 -0.659119 1.30742e-15)
(2635.57 -0.668463 -1.47564e-17)
(2635.58 -0.66827 -2.28346e-15)
)
;

boundaryField
{
    inlet
    {
        type            calculated;
        value           uniform (0 0 0);
    }
    outlet2
    {
        type            calculated;
        value           uniform (0 0 0);
    }
    outlet1
    {
        type            calculated;
        value           nonuniform List<vector> 0();
    }
    wall
    {
        type            calculated;
        value           uniform (0 0 0);
    }
    symmetryBottom
    {
        type            symmetry;
    }
    symmetryZ0
    {
        type            symmetry;
    }
    symmetryZ05
    {
        type            symmetry;
    }
    procBoundary1to0
    {
        type            processor;
        value           uniform (0 0 0);
    }
}


// ************************************************************************* //
