/*--------------------------------*- C++ -*----------------------------------*\
| =========                 |                                                 |
| \\      /  F ield         | OpenFOAM: The Open Source CFD Toolbox           |
|  \\    /   O peration     | Version:  2412                                  |
|   \\  /    A nd           | Website:  www.openfoam.com                      |
|    \\/     M anipulation  |                                                 |
\*---------------------------------------------------------------------------*/
FoamFile
{
    version     2.0;
    format      ascii;
    arch        "LSB;label=32;scalar=64";
    class       volScalarField;
    location    "8.7e-06";
    object      E_dof0;
}
// * * * * * * * * * * * * * * * * * * * * * * * * * * * * * * * * * * * * * //

dimensions      [0 0 0 0 0 0 0];

internalField   nonuniform List<scalar> 
84
(
116.835
10.7183
19.4962
116.872
10.7922
18.8708
116.894
10.7873
18.9523
116.894
10.7787
19.0338
116.895
10.7701
19.1152
116.896
10.7616
19.1961
116.897
10.7531
19.2766
116.898
10.7446
19.3567
116.898
10.7361
19.4363
116.899
10.7277
19.5156
116.9
10.7193
19.5944
116.901
10.7108
19.6727
60.5012
57.1764
54.7498
64.5583
60.885
58.2904
64.093
60.4589
57.9276
63.5708
59.8544
60.5913
52.1643
63.048
59.3947
59.7471
56.9551
62.5298
58.923
59.2581
56.5583
62.0157
58.4547
58.7785
56.1038
61.5057
57.9902
58.302
55.6712
60.9996
57.5323
57.7218
58.0088
52.8427
60.4975
57.0747
57.2624
57.3731
54.7567
59.9995
56.621
56.7996
56.8974
54.3685
59.5056
56.1685
56.4353
53.9427
)
;

boundaryField
{
    inlet
    {
        type            calculated;
        value           uniform 99.4306;
    }
    outlet2
    {
        type            calculated;
        value           uniform 99.4306;
    }
    outlet1
    {
        type            calculated;
        value           nonuniform List<scalar> 0();
    }
    wall
    {
        type            calculated;
        value           uniform 99.4306;
    }
    symmetryBottom
    {
        type            symmetry;
    }
    symmetryZ0
    {
        type            symmetry;
    }
    symmetryZ05
    {
        type            symmetry;
    }
    procBoundary1to0
    {
        type            processor;
        value           uniform 99.4306;
    }
}


// ************************************************************************* //
