/*--------------------------------*- C++ -*----------------------------------*\
| =========                 |                                                 |
| \\      /  F ield         | OpenFOAM: The Open Source CFD Toolbox           |
|  \\    /   O peration     | Version:  2412                                  |
|   \\  /    A nd           | Website:  www.openfoam.com                      |
|    \\/     M anipulation  |                                                 |
\*---------------------------------------------------------------------------*/
FoamFile
{
    version     2.0;
    format      ascii;
    arch        "LSB;label=32;scalar=64";
    class       volScalarField;
    location    "8.7e-06";
    object      rho_dof0;
}
// * * * * * * * * * * * * * * * * * * * * * * * * * * * * * * * * * * * * * //

dimensions      [0 0 0 0 0 0 0];

internalField   nonuniform List<scalar> 
84
(
3.29303e-05
3.21462e-06
5.64246e-06
3.29405e-05
3.23511e-06
5.46851e-06
3.29466e-05
3.23382e-06
5.49117e-06
3.29468e-05
3.23146e-06
5.5138e-06
3.2947e-05
3.2291e-06
5.5364e-06
3.29472e-05
3.22675e-06
5.55887e-06
3.29475e-05
3.22442e-06
5.58122e-06
3.29477e-05
3.22209e-06
5.60346e-06
3.29479e-05
3.21977e-06
5.62558e-06
3.29481e-05
3.21746e-06
5.64758e-06
3.29483e-05
3.21515e-06
5.66947e-06
3.29486e-05
3.21282e-06
5.69123e-06
1.71939e-05
1.62696e-05
1.55996e-05
1.83321e-05
1.73114e-05
1.65954e-05
1.82015e-05
1.71916e-05
1.64929e-05
1.80549e-05
1.70228e-05
1.72262e-05
1.48765e-05
1.79082e-05
1.68934e-05
1.69903e-05
1.62198e-05
1.77628e-05
1.67608e-05
1.68529e-05
1.6108e-05
1.76185e-05
1.66292e-05
1.67181e-05
1.598e-05
1.74754e-05
1.64986e-05
1.65842e-05
1.58581e-05
1.73333e-05
1.63698e-05
1.6422e-05
1.65012e-05
1.50644e-05
1.71924e-05
1.62411e-05
1.62928e-05
1.63231e-05
1.56008e-05
1.70525e-05
1.61135e-05
1.61627e-05
1.61894e-05
1.54913e-05
1.69139e-05
1.59863e-05
1.60594e-05
1.53713e-05
)
;

boundaryField
{
    inlet
    {
        type            calculated;
        value           uniform 2.81085e-05;
    }
    outlet2
    {
        type            calculated;
        value           uniform 2.81085e-05;
    }
    outlet1
    {
        type            calculated;
        value           nonuniform List<scalar> 0();
    }
    wall
    {
        type            calculated;
        value           uniform 2.81085e-05;
    }
    symmetryBottom
    {
        type            symmetry;
    }
    symmetryZ0
    {
        type            symmetry;
    }
    symmetryZ05
    {
        type            symmetry;
    }
    procBoundary1to0
    {
        type            processor;
        value           uniform 2.81085e-05;
    }
}


// ************************************************************************* //
