/*--------------------------------*- C++ -*----------------------------------*\
| =========                 |                                                 |
| \\      /  F ield         | OpenFOAM: The Open Source CFD Toolbox           |
|  \\    /   O peration     | Version:  2412                                  |
|   \\  /    A nd           | Website:  www.openfoam.com                      |
|    \\/     M anipulation  |                                                 |
\*---------------------------------------------------------------------------*/
FoamFile
{
    version     2.0;
    format      ascii;
    arch        "LSB;label=32;scalar=64";
    class       volVectorField;
    location    "8.7e-06";
    object      rhoU_dof0;
}
// * * * * * * * * * * * * * * * * * * * * * * * * * * * * * * * * * * * * * //

dimensions      [0 0 0 0 0 0 0];

internalField   nonuniform List<vector> 
84
(
(0.0869486 1.75028e-07 -3.18958e-21)
(0.0082266 -4.34175e-07 2.3647e-20)
(0.0147002 6.44596e-08 -1.23365e-19)
(0.0869755 -0.000243821 -3.37796e-21)
(0.00828124 -3.40887e-05 2.49549e-20)
(0.0142368 -4.91444e-05 -1.29213e-19)
(0.0869917 -0.000243867 4.44013e-21)
(0.00827767 -3.41175e-05 -3.27443e-20)
(0.0142969 -4.89485e-05 1.69395e-19)
(0.0869923 -0.000243875 -5.79828e-21)
(0.00827135 -3.40993e-05 4.27192e-20)
(0.0143572 -4.91384e-05 -2.23001e-19)
(0.0869929 -0.000243877 -1.0304e-20)
(0.00826505 -3.40796e-05 7.53902e-20)
(0.0144173 -4.93313e-05 -3.83058e-19)
(0.0869934 -0.000243879 5.64377e-21)
(0.00825877 -3.406e-05 -4.1282e-20)
(0.0144771 -4.95222e-05 2.13061e-19)
(0.086994 -0.00024388 -7.55577e-21)
(0.00825252 -3.40405e-05 5.56267e-20)
(0.0145366 -4.97122e-05 -2.8741e-19)
(0.0869945 -0.000243882 -8.77018e-21)
(0.00824629 -3.40211e-05 6.44987e-20)
(0.0145957 -4.99011e-05 -3.33887e-19)
(0.0869951 -0.000243884 3.26449e-21)
(0.00824009 -3.40018e-05 -2.39398e-20)
(0.0146546 -5.00892e-05 1.22484e-19)
(0.0869956 -0.000243885 -7.45173e-21)
(0.00823391 -3.39825e-05 5.54094e-20)
(0.0147131 -5.02762e-05 -2.91802e-19)
(0.0869962 -0.000243887 -1.9317e-20)
(0.00822772 -3.39632e-05 1.42969e-19)
(0.0147713 -5.04622e-05 -7.43906e-19)
(0.0869971 -0.000244096 5.51522e-24)
(0.0082215 -3.3553e-05 -1.15348e-22)
(0.0148292 -5.03407e-05 1.82742e-21)
(0.0452013 -2.79761e-06 -1.68503e-21)
(0.0427442 -2.67611e-06 1.83095e-19)
(0.0409567 -2.59266e-06 -1.71751e-20)
(0.0482203 -0.000159798 -1.12761e-21)
(0.0455056 -0.000153609 1.8733e-19)
(0.0435946 -0.000146558 -2.04779e-20)
(0.0478747 -0.000161386 -1.05525e-20)
(0.0451889 -0.000155032 -6.67643e-20)
(0.0433241 -0.000149582 -2.72265e-19)
(0.0474869 -0.000160164 2.02784e-20)
(0.044741 -0.000152901 -3.55421e-21)
(0.0452838 -0.000169611 -2.49843e-20)
(0.0390458 4.37223e-05 3.53771e-19)
(0.0470986 -0.00015887 -5.21913e-20)
(0.0443992 -0.000152267 1.80456e-21)
(0.0446582 -0.000155783 -2.46421e-20)
(0.0426019 -0.000144594 3.17302e-19)
(0.0467138 -0.000157602 -7.08668e-21)
(0.0440486 -0.000151105 -1.8409e-19)
(0.0442948 -0.00015427 -6.65991e-21)
(0.0423065 -0.000146707 2.17675e-19)
(0.046332 -0.000156345 2.55976e-20)
(0.0437006 -0.000149939 -3.31886e-21)
(0.0439384 -0.000153054 -1.71868e-21)
(0.0419685 -0.000145601 -2.41852e-22)
(0.0459532 -0.000155097 4.47504e-20)
(0.0433553 -0.000148783 -1.98885e-19)
(0.0435843 -0.000151795 1.92625e-19)
(0.0416465 -0.00014582 9.6844e-22)
(0.0455773 -0.000153858 8.51525e-21)
(0.0430148 -0.000147665 -2.5279e-19)
(0.0431543 -0.000149653 -2.64668e-19)
(0.0433656 -0.000165509 1.64237e-19)
(0.0395463 4.288e-05 1.75428e-18)
(0.0452045 -0.00015263 4.67156e-20)
(0.0426747 -0.000146508 -2.82198e-19)
(0.0428127 -0.000149022 1.72463e-19)
(0.0428939 -0.000151777 4.17309e-19)
(0.0409666 -0.000142938 2.88087e-19)
(0.0448345 -0.000151411 6.9616e-20)
(0.0423374 -0.000145375 -3.9783e-21)
(0.0424687 -0.000147899 8.77043e-23)
(0.0425403 -0.000149417 1.76863e-20)
(0.0406775 -0.000157545 -2.3143e-19)
(0.0444677 -0.000150156 -1.95256e-20)
(0.0420011 -0.000144165 2.75078e-19)
(0.0421968 -0.000146343 1.20188e-20)
(0.0403605 -0.000156231 -4.43372e-19)
)
;

boundaryField
{
    inlet
    {
        type            calculated;
        value           uniform (0.0741049 0 0);
    }
    outlet2
    {
        type            calculated;
        value           uniform (0.0741049 0 0);
    }
    outlet1
    {
        type            calculated;
        value           nonuniform List<vector> 0();
    }
    wall
    {
        type            calculated;
        value           uniform (0.0741049 0 0);
    }
    symmetryBottom
    {
        type            symmetry;
    }
    symmetryZ0
    {
        type            symmetry;
    }
    symmetryZ05
    {
        type            symmetry;
    }
    procBoundary1to0
    {
        type            processor;
        value           uniform (0.0741049 0 0);
    }
}


// ************************************************************************* //
