/*--------------------------------*- C++ -*----------------------------------*\
| =========                 |                                                 |
| \\      /  F ield         | OpenFOAM: The Open Source CFD Toolbox           |
|  \\    /   O peration     | Version:  2412                                  |
|   \\  /    A nd           | Website:  www.openfoam.com                      |
|    \\/     M anipulation  |                                                 |
\*---------------------------------------------------------------------------*/
FoamFile
{
    version     2.0;
    format      ascii;
    arch        "LSB;label=32;scalar=64";
    class       volScalarField;
    location    "4.9e-06";
    object      rho_dof0;
}
// * * * * * * * * * * * * * * * * * * * * * * * * * * * * * * * * * * * * * //

dimensions      [0 0 0 0 0 0 0];

internalField   nonuniform List<scalar> 
84
(
2.76803e-05
1.99418e-05
2.05544e-05
2.05235e-05
2.05257e-05
2.05267e-05
2.05277e-05
2.06391e-05
2.89249e-05
2.08591e-05
2.15119e-05
2.14944e-05
2.15116e-05
2.15281e-05
2.15451e-05
2.16606e-05
2.87053e-05
2.0845e-05
2.14025e-05
2.13921e-05
2.14072e-05
2.1422e-05
2.14373e-05
2.15524e-05
2.8607e-05
2.06801e-05
2.13222e-05
2.13021e-05
2.13165e-05
2.133e-05
2.14447e-05
2.85495e-05
2.05784e-05
2.12202e-05
2.11986e-05
2.12113e-05
2.12231e-05
2.13373e-05
2.84174e-05
2.04808e-05
2.11183e-05
2.10951e-05
2.11061e-05
2.11162e-05
2.123e-05
2.8285e-05
2.03838e-05
2.10165e-05
2.09919e-05
2.10013e-05
2.10096e-05
2.1123e-05
2.81079e-05
2.03342e-05
2.09118e-05
2.08906e-05
2.08981e-05
2.09048e-05
2.10178e-05
2.7986e-05
2.01945e-05
2.08165e-05
2.07891e-05
2.07953e-05
2.09078e-05
2.7906e-05
2.01026e-05
2.07234e-05
2.06947e-05
2.06994e-05
2.08115e-05
2.77487e-05
2.00057e-05
2.06193e-05
2.05892e-05
2.05923e-05
2.07039e-05
2.74989e-05
1.9935e-05
2.0518e-05
2.04888e-05
2.04901e-05
2.04902e-05
2.06016e-05
)
;

boundaryField
{
    inlet
    {
        type            calculated;
        value           nonuniform List<scalar> 0();
    }
    outlet2
    {
        type            calculated;
        value           uniform 2.81085e-05;
    }
    outlet1
    {
        type            calculated;
        value           uniform 2.81085e-05;
    }
    wall
    {
        type            calculated;
        value           uniform 2.81085e-05;
    }
    symmetryBottom
    {
        type            symmetry;
    }
    symmetryZ0
    {
        type            symmetry;
    }
    symmetryZ05
    {
        type            symmetry;
    }
    procBoundary0to1
    {
        type            processor;
        value           uniform 2.81085e-05;
    }
}


// ************************************************************************* //
