/*--------------------------------*- C++ -*----------------------------------*\
| =========                 |                                                 |
| \\      /  F ield         | OpenFOAM: The Open Source CFD Toolbox           |
|  \\    /   O peration     | Version:  2412                                  |
|   \\  /    A nd           | Website:  www.openfoam.com                      |
|    \\/     M anipulation  |                                                 |
\*---------------------------------------------------------------------------*/
FoamFile
{
    version     2.0;
    format      ascii;
    arch        "LSB;label=32;scalar=64";
    class       volVectorField;
    location    "4.9e-06";
    object      rhoU;
}
// * * * * * * * * * * * * * * * * * * * * * * * * * * * * * * * * * * * * * //

dimensions      [0 0 0 0 0 0 0];

internalField   nonuniform List<vector> 
84
(
(0.0729349 0.000140059 1.38776e-19)
(0.0524354 0.000102788 -1.40871e-19)
(0.0540674 0.000107394 -2.66871e-19)
(0.0539844 0.000108804 1.53549e-19)
(0.0539899 0.000110427 -1.60294e-20)
(0.0539921 0.000112093 1.86039e-20)
(0.0539945 0.00011381 2.52478e-19)
(0.0542895 0.000114282 3.89538e-20)
(0.0762616 -0.000149065 1.44305e-19)
(0.0548832 -0.000110822 -1.37798e-19)
(0.0566236 -0.000115543 -3.31912e-19)
(0.0565759 -0.000117221 3.31617e-20)
(0.0566217 -0.000119106 -6.2938e-19)
(0.0566653 -0.000121046 1.28184e-19)
(0.0567104 -0.000123051 5.00285e-19)
(0.0570165 -0.00012353 1.0073e-19)
(0.0756781 -0.000136401 -5.9372e-19)
(0.0548475 -0.000120904 1.07693e-19)
(0.0563334 -0.000113984 1.91782e-19)
(0.0563052 -0.000116741 -1.77322e-20)
(0.0563453 -0.000118549 -7.412e-21)
(0.0563845 -0.000120474 2.48304e-19)
(0.0564249 -0.00012246 -2.18654e-19)
(0.0567298 -0.000122937 -2.40459e-19)
(0.0754176 -0.000140732 -5.75072e-19)
(0.0544096 -0.000111876 2.70604e-19)
(0.056121 -0.000116289 -2.45991e-20)
(0.0560669 -0.000117994 -5.58406e-19)
(0.056105 -0.000119905 5.44701e-19)
(0.0561408 -0.000121872 9.91227e-20)
(0.0564446 -0.000122348 -2.18977e-19)
(0.075266 -0.000149551 -3.56621e-19)
(0.0541404 -0.000110905 -9.81018e-20)
(0.0558512 -0.000115803 8.85508e-21)
(0.0557927 -0.000117473 2.71316e-21)
(0.0558265 -0.000119368 -2.05508e-19)
(0.0558577 -0.000121318 1.55523e-19)
(0.0561603 -0.000121793 3.48982e-19)
(0.0749151 -0.000143324 -2.15416e-19)
(0.0538815 -0.000106124 2.96918e-19)
(0.0555806 -0.000110861 -2.58042e-20)
(0.0555182 -0.00011248 3.56967e-19)
(0.0555475 -0.000114316 -3.22389e-19)
(0.0555741 -0.000116207 2.75793e-19)
(0.0558756 -0.000116663 -6.01359e-19)
(0.0745616 -0.000114906 -6.78053e-23)
(0.0536225 -8.51517e-05 2.82859e-19)
(0.0553089 -8.88732e-05 -2.51439e-20)
(0.0552427 -9.01696e-05 2.87699e-22)
(0.0552675 -9.16323e-05 2.9592e-19)
(0.0552895 -9.31385e-05 4.01031e-20)
(0.0555899 -9.35062e-05 2.93721e-19)
(0.0740909 -8.717e-05 4.29266e-21)
(0.0534904 -8.0404e-05 3.07288e-21)
(0.0550305 -7.44255e-05 -1.35724e-21)
(0.0549733 -7.63947e-05 -3.29747e-21)
(0.0549931 -7.75931e-05 -6.94536e-22)
(0.0550108 -7.88781e-05 1.43313e-21)
(0.05531 -7.91895e-05 -2.50162e-19)
(0.073766 -8.25284e-05 7.54947e-19)
(0.0531181 -6.52701e-05 -5.94917e-20)
(0.0547762 -6.79122e-05 -6.18656e-19)
(0.0547026 -6.89017e-05 -2.09815e-19)
(0.0547188 -7.0016e-05 3.34406e-19)
(0.0550168 -7.02959e-05 -2.8352e-20)
(0.0735572 -8.62098e-05 -2.70392e-19)
(0.0528806 -6.35824e-05 2.13023e-20)
(0.0545349 -6.64191e-05 -2.83921e-19)
(0.0544579 -6.73395e-05 3.10841e-19)
(0.0544705 -6.83907e-05 5.23891e-19)
(0.0547675 -6.86682e-05 -4.86226e-20)
(0.0731412 -9.17053e-05 -3.80461e-19)
(0.0526238 -7.23396e-05 2.89539e-20)
(0.0542594 -7.49502e-05 -9.04759e-22)
(0.0541787 -7.6034e-05 5.46272e-19)
(0.0541867 -7.72316e-05 5.67386e-19)
(0.0544825 -7.75437e-05 2.47106e-20)
(0.0724805 -1.12541e-05 -2.35518e-20)
(0.052437 -9.53617e-05 1.27276e-21)
(0.0539916 -8.74357e-05 -4.8791e-23)
(0.0539132 -8.93984e-05 3.32826e-19)
(0.0539167 -9.0742e-05 -2.96022e-20)
(0.0539172 -9.21594e-05 1.60606e-21)
(0.0542121 -9.25355e-05 -2.86266e-19)
)
;

boundaryField
{
    inlet
    {
        type            calculated;
        value           nonuniform List<vector> 0();
    }
    outlet2
    {
        type            calculated;
        value           uniform (0 0 0);
    }
    outlet1
    {
        type            calculated;
        value           uniform (0 0 0);
    }
    wall
    {
        type            calculated;
        value           uniform (0 0 0);
    }
    symmetryBottom
    {
        type            symmetry;
    }
    symmetryZ0
    {
        type            symmetry;
    }
    symmetryZ05
    {
        type            symmetry;
    }
    procBoundary0to1
    {
        type            processor;
        value           uniform (0 0 0);
    }
}


// ************************************************************************* //
