/*--------------------------------*- C++ -*----------------------------------*\
| =========                 |                                                 |
| \\      /  F ield         | OpenFOAM: The Open Source CFD Toolbox           |
|  \\    /   O peration     | Version:  2412                                  |
|   \\  /    A nd           | Website:  www.openfoam.com                      |
|    \\/     M anipulation  |                                                 |
\*---------------------------------------------------------------------------*/
FoamFile
{
    version     2.0;
    format      ascii;
    arch        "LSB;label=32;scalar=64";
    class       volScalarField;
    location    "4.9e-06";
    object      T;
}
// * * * * * * * * * * * * * * * * * * * * * * * * * * * * * * * * * * * * * //

dimensions      [0 0 0 0 0 0 0];

internalField   nonuniform List<scalar> 
84
(
202.976
203.025
203.102
203.145
203.194
203.243
203.295
203.291
199.985
199.969
200.002
199.998
199.998
199.998
199.998
199.998
199.97
199.97
200.001
199.998
199.998
199.998
199.998
199.998
199.988
199.968
200.002
199.998
199.998
199.998
199.998
199.989
199.971
200.005
200.001
200.002
200.002
200.002
200.451
200.462
200.498
200.499
200.504
200.509
200.509
202.657
202.74
202.804
202.843
202.887
202.932
202.927
204.625
204.94
204.969
205.05
205.13
205.212
205.204
212.543
214.058
214.195
214.442
214.694
214.667
194.712
194.578
194.534
194.44
194.349
194.357
198.66
198.692
198.697
198.672
198.651
198.653
199.886
199.414
199.465
199.451
199.442
199.433
199.434
)
;

boundaryField
{
    inlet
    {
        type            calculated;
        value           nonuniform List<scalar> 0();
    }
    outlet2
    {
        type            calculated;
        value           uniform 0;
    }
    outlet1
    {
        type            calculated;
        value           uniform 0;
    }
    wall
    {
        type            calculated;
        value           uniform 0;
    }
    symmetryBottom
    {
        type            symmetry;
    }
    symmetryZ0
    {
        type            symmetry;
    }
    symmetryZ05
    {
        type            symmetry;
    }
    procBoundary0to1
    {
        type            processor;
        value           uniform 0;
    }
}


// ************************************************************************* //
