/*--------------------------------*- C++ -*----------------------------------*\
| =========                 |                                                 |
| \\      /  F ield         | OpenFOAM: The Open Source CFD Toolbox           |
|  \\    /   O peration     | Version:  2412                                  |
|   \\  /    A nd           | Website:  www.openfoam.com                      |
|    \\/     M anipulation  |                                                 |
\*---------------------------------------------------------------------------*/
FoamFile
{
    version     2.0;
    format      ascii;
    arch        "LSB;label=32;scalar=64";
    class       volScalarField;
    location    "1.2e-06";
    object      E_dof0;
}
// * * * * * * * * * * * * * * * * * * * * * * * * * * * * * * * * * * * * * //

dimensions      [0 0 0 0 0 0 0];

internalField   nonuniform List<scalar> 
84
(
99.4191
91.8041
91.9441
91.9429
91.9433
91.9436
91.944
92.0604
100.533
92.8549
93.0119
93.0268
93.0438
93.0613
93.0794
93.1967
100.4
92.7633
92.9028
92.9163
92.9316
92.9473
92.9636
93.0809
100.304
92.6537
92.8075
92.8195
92.8335
92.8479
92.9651
100.207
92.545
92.6972
92.7075
92.7198
92.7324
92.8495
100.093
92.4373
92.5878
92.5964
92.6069
92.6177
92.7347
99.9819
92.332
92.4807
92.4877
92.4965
92.5055
92.6224
99.8605
92.2362
92.3745
92.38
92.3871
92.3944
92.5112
99.7694
92.1396
92.2852
92.2892
92.295
92.4117
99.6288
91.9974
92.1408
92.1426
92.1461
92.2627
99.5166
91.896
92.0375
92.0377
92.0395
92.156
99.291
91.7943
91.9283
91.9269
91.927
91.927
92.0434
)
;

boundaryField
{
    inlet
    {
        type            calculated;
        value           nonuniform List<scalar> 0();
    }
    outlet2
    {
        type            calculated;
        value           uniform 99.4306;
    }
    outlet1
    {
        type            calculated;
        value           uniform 99.4306;
    }
    wall
    {
        type            calculated;
        value           uniform 99.4306;
    }
    symmetryBottom
    {
        type            symmetry;
    }
    symmetryZ0
    {
        type            symmetry;
    }
    symmetryZ05
    {
        type            symmetry;
    }
    procBoundary0to1
    {
        type            processor;
        value           uniform 99.4306;
    }
}


// ************************************************************************* //
