/*--------------------------------*- C++ -*----------------------------------*\
| =========                 |                                                 |
| \\      /  F ield         | OpenFOAM: The Open Source CFD Toolbox           |
|  \\    /   O peration     | Version:  2412                                  |
|   \\  /    A nd           | Website:  www.openfoam.com                      |
|    \\/     M anipulation  |                                                 |
\*---------------------------------------------------------------------------*/
FoamFile
{
    version     2.0;
    format      ascii;
    arch        "LSB;label=32;scalar=64";
    class       volVectorField;
    location    "6.6e-06";
    object      rhoU_dof0;
}
// * * * * * * * * * * * * * * * * * * * * * * * * * * * * * * * * * * * * * //

dimensions      [0 0 0 0 0 0 0];

internalField   nonuniform List<vector> 
84
(
(0.0719429 0.000183951 1.85113e-19)
(0.0457672 0.000119574 -1.7826e-19)
(0.0485875 0.000128514 -2.97924e-19)
(0.0483905 0.000129859 1.97941e-19)
(0.0484045 0.000131795 -2.93367e-20)
(0.0484076 0.000133759 2.50453e-20)
(0.0484113 0.000135784 2.86133e-19)
(0.0487778 0.000136571 3.12895e-20)
(0.0763698 -0.000200812 1.86007e-19)
(0.0486551 -0.00013281 -1.78267e-19)
(0.051687 -0.000142078 -3.91603e-19)
(0.051526 -0.000143883 5.24196e-20)
(0.0515893 -0.000146251 -7.33835e-19)
(0.0516427 -0.000148673 1.84387e-19)
(0.0516984 -0.000151178 5.98864e-19)
(0.0520835 -0.000151999 1.14969e-19)
(0.0754967 -0.000178879 -7.42522e-19)
(0.0487452 -0.000151101 1.49069e-19)
(0.0513045 -0.000138672 2.17417e-19)
(0.0511969 -0.000143179 -2.91326e-20)
(0.0512504 -0.000145315 -1.10164e-20)
(0.0512985 -0.000147718 2.84056e-19)
(0.0513484 -0.000150191 -2.47811e-19)
(0.0517316 -0.000151008 -2.72411e-19)
(0.0751645 -0.000185716 -7.10655e-19)
(0.0480992 -0.00013404 3.34266e-19)
(0.0510706 -0.000142555 -4.0336e-20)
(0.0509031 -0.000144382 -6.59842e-19)
(0.0509569 -0.00014677 6.64825e-19)
(0.0510006 -0.000149211 1.03873e-19)
(0.0513819 -0.000150025 -2.48292e-19)
(0.0750327 -0.000200737 -4.37436e-19)
(0.0477668 -0.000132107 -1.12277e-19)
(0.050741 -0.000141774 1.39825e-20)
(0.0505681 -0.000143514 4.23219e-21)
(0.0506164 -0.000145876 -2.2578e-19)
(0.0506545 -0.000148288 2.02276e-19)
(0.0510339 -0.000149099 4.15429e-19)
(0.0745613 -0.000193197 -2.74315e-19)
(0.0474585 -0.000126887 3.55709e-19)
(0.0504096 -0.000136277 -4.23218e-20)
(0.0502327 -0.00013798 4.21317e-19)
(0.0502754 -0.000140289 -3.9026e-19)
(0.0503078 -0.000142648 3.28315e-19)
(0.0506853 -0.000143429 -7.02429e-19)
(0.0740852 -0.000154455 -1.07107e-22)
(0.0471512 -0.000101692 3.24327e-19)
(0.0500765 -0.000108996 -4.03682e-20)
(0.0498959 -0.00011037 1.6879e-21)
(0.049933 -0.000112201 3.45631e-19)
(0.0499597 -0.000114072 3.91482e-20)
(0.0503352 -0.000114699 3.43195e-19)
(0.0734098 -0.000113382 7.28251e-21)
(0.0470695 -0.000101334 5.55443e-21)
(0.0497229 -9.05091e-05 -2.08608e-21)
(0.0495701 -9.3847e-05 -5.38846e-21)
(0.0495996 -9.52531e-05 -1.06537e-21)
(0.049621 -9.68648e-05 2.58779e-21)
(0.0499946 -9.7396e-05 -2.73806e-19)
(0.0729741 -0.000108095 9.94012e-19)
(0.0465543 -7.76619e-05 -1.03603e-19)
(0.0494211 -8.27128e-05 -7.20681e-19)
(0.0492331 -8.37507e-05 -2.11452e-19)
(0.0492594 -8.5127e-05 4.01039e-19)
(0.0496305 -8.56006e-05 -5.37446e-20)
(0.07275 -0.000113818 -3.49156e-19)
(0.0462775 -7.44424e-05 3.70349e-20)
(0.0491399 -7.99411e-05 -3.32449e-19)
(0.0489484 -8.08486e-05 3.72294e-19)
(0.0489707 -8.21145e-05 6.1789e-19)
(0.0493401 -8.25799e-05 -7.37924e-20)
(0.0721689 -0.000119108 -4.48849e-19)
(0.0459781 -8.56942e-05 5.0393e-20)
(0.0488007 -9.0471e-05 -2.60169e-21)
(0.0486061 -9.16314e-05 6.4941e-19)
(0.0486225 -9.30816e-05 6.54723e-19)
(0.04899 -9.36064e-05 1.70878e-20)
(0.0712995 -1.88779e-05 -3.71169e-20)
(0.0457926 -0.000117763 2.82935e-21)
(0.0484721 -0.00010455 -1.52018e-22)
(0.0482877 -0.00010754 3.92017e-19)
(0.0482981 -0.000109094 -4.77134e-20)
(0.0482986 -0.000110795 3.5807e-21)
(0.0486648 -0.000111426 -3.2344e-19)
)
;

boundaryField
{
    inlet
    {
        type            calculated;
        value           nonuniform List<vector> 0();
    }
    outlet2
    {
        type            calculated;
        value           uniform (0.0741049 0 0);
    }
    outlet1
    {
        type            calculated;
        value           uniform (0.0741049 0 0);
    }
    wall
    {
        type            calculated;
        value           uniform (0.0741049 0 0);
    }
    symmetryBottom
    {
        type            symmetry;
    }
    symmetryZ0
    {
        type            symmetry;
    }
    symmetryZ05
    {
        type            symmetry;
    }
    procBoundary0to1
    {
        type            processor;
        value           uniform (0.0741049 0 0);
    }
}


// ************************************************************************* //
