/*--------------------------------*- C++ -*----------------------------------*\
| =========                 |                                                 |
| \\      /  F ield         | OpenFOAM: The Open Source CFD Toolbox           |
|  \\    /   O peration     | Version:  2412                                  |
|   \\  /    A nd           | Website:  www.openfoam.com                      |
|    \\/     M anipulation  |                                                 |
\*---------------------------------------------------------------------------*/
FoamFile
{
    version     2.0;
    format      ascii;
    arch        "LSB;label=32;scalar=64";
    class       volVectorField;
    location    "2.3e-06";
    object      rhoU;
}
// * * * * * * * * * * * * * * * * * * * * * * * * * * * * * * * * * * * * * //

dimensions      [0 0 0 0 0 0 0];

internalField   nonuniform List<vector> 
84
(
(0.0739185 6.77846e-05 6.98959e-20)
(0.0634722 5.93348e-05 -7.09861e-20)
(0.0638539 6.05442e-05 -1.65302e-19)
(0.0638457 6.14378e-05 7.55316e-20)
(0.0638465 6.23664e-05 -2.49644e-21)
(0.0638473 6.33234e-05 9.07737e-21)
(0.063848 6.43103e-05 1.53009e-19)
(0.0640048 6.4428e-05 3.38975e-20)
(0.0754964 -6.93834e-05 7.28799e-20)
(0.0648565 -6.12438e-05 -6.84984e-20)
(0.0652663 -6.24739e-05 -1.9759e-19)
(0.0652794 -6.34289e-05 9.47373e-21)
(0.0653023 -6.44203e-05 -3.50103e-19)
(0.0653258 -6.54431e-05 4.9456e-20)
(0.06535 -6.64989e-05 2.86008e-19)
(0.0655095 -6.66112e-05 6.41656e-20)
(0.0752792 -6.64535e-05 -3.23787e-19)
(0.0647611 -6.33547e-05 4.70189e-20)
(0.0651189 -6.22503e-05 1.01029e-19)
(0.0651318 -6.33008e-05 -4.833e-21)
(0.0651524 -6.42858e-05 -2.44271e-21)
(0.0651735 -6.53044e-05 1.42358e-19)
(0.0651953 -6.63557e-05 -1.12302e-19)
(0.0653545 -6.64679e-05 -1.48078e-19)
(0.0751474 -6.79179e-05 -3.23017e-19)
(0.0645896 -6.19599e-05 1.48212e-19)
(0.0649935 -6.31743e-05 -6.34444e-21)
(0.0650026 -6.41515e-05 -3.19226e-19)
(0.0650215 -6.51659e-05 2.95288e-19)
(0.0650408 -6.62128e-05 6.36149e-20)
(0.0651998 -6.63248e-05 -1.1276e-19)
(0.0750311 -7.00263e-05 -1.75688e-19)
(0.0644444 -6.17878e-05 -6.25654e-20)
(0.0648464 -6.30509e-05 2.39465e-21)
(0.0648532 -6.40234e-05 6.98283e-22)
(0.0648698 -6.50339e-05 -1.02179e-19)
(0.0648867 -6.60765e-05 7.83589e-20)
(0.0650453 -6.61885e-05 2.13336e-19)
(0.074867 -6.66817e-05 -1.08845e-19)
(0.0643 -5.87868e-05 1.76157e-19)
(0.0646991 -5.99968e-05 -6.35745e-21)
(0.0647037 -6.0927e-05 2.11661e-19)
(0.0647178 -6.18936e-05 -1.85546e-19)
(0.0647323 -6.28912e-05 1.56563e-19)
(0.0648907 -6.29985e-05 -3.41034e-19)
(0.0747022 -5.3673e-05 -1.81682e-23)
(0.0641554 -4.72904e-05 1.73813e-19)
(0.0645513 -4.82586e-05 -6.28409e-21)
(0.0645536 -4.9005e-05 -4.06348e-22)
(0.0645654 -4.97805e-05 1.77328e-19)
(0.0645774 -5.05807e-05 2.85242e-20)
(0.0647356 -5.06678e-05 1.87945e-19)
(0.0745096 -4.30058e-05 8.68892e-22)
(0.0640384 -4.16589e-05 5.80971e-22)
(0.064404 -4.0645e-05 -5.69097e-22)
(0.0644053 -4.13546e-05 -8.46896e-22)
(0.0644147 -4.20087e-05 -1.11706e-22)
(0.0644243 -4.26856e-05 2.16438e-22)
(0.0645822 -4.27597e-05 -1.45182e-19)
(0.0743568 -4.02458e-05 3.9024e-19)
(0.0638735 -3.65412e-05 -1.36224e-20)
(0.0642632 -3.7275e-05 -3.52061e-19)
(0.0642611 -3.7856e-05 -1.33581e-19)
(0.0642684 -3.84596e-05 1.85157e-19)
(0.064426 -3.85272e-05 -1.04129e-22)
(0.074225 -4.13827e-05 -1.37391e-19)
(0.0637348 -3.63481e-05 4.94416e-21)
(0.0641223 -3.71004e-05 -1.74242e-19)
(0.0641182 -3.76689e-05 1.81938e-19)
(0.0641232 -3.82599e-05 3.1541e-19)
(0.0642806 -3.8328e-05 -1.02752e-20)
(0.0740452 -4.52413e-05 -1.82838e-19)
(0.0635894 -4.0884e-05 6.58382e-21)
(0.0639732 -4.16752e-05 9.27113e-24)
(0.0639667 -4.23177e-05 3.16267e-19)
(0.0639694 -4.29842e-05 3.39622e-19)
(0.0641265 -4.30606e-05 2.64582e-20)
(0.0737246 -2.75243e-06 -5.93247e-21)
(0.0634615 -5.07751e-05 1.36246e-22)
(0.0638263 -4.91046e-05 -2.2398e-24)
(0.0638182 -4.99254e-05 2.06732e-19)
(0.0638185 -5.06958e-05 -7.69147e-21)
(0.0638186 -5.14919e-05 1.79293e-22)
(0.0639754 -5.15848e-05 -1.82766e-19)
)
;

boundaryField
{
    inlet
    {
        type            calculated;
        value           nonuniform List<vector> 0();
    }
    outlet2
    {
        type            calculated;
        value           uniform (0 0 0);
    }
    outlet1
    {
        type            calculated;
        value           uniform (0 0 0);
    }
    wall
    {
        type            calculated;
        value           uniform (0 0 0);
    }
    symmetryBottom
    {
        type            symmetry;
    }
    symmetryZ0
    {
        type            symmetry;
    }
    symmetryZ05
    {
        type            symmetry;
    }
    procBoundary0to1
    {
        type            processor;
        value           uniform (0 0 0);
    }
}


// ************************************************************************* //
