/*--------------------------------*- C++ -*----------------------------------*\
| =========                 |                                                 |
| \\      /  F ield         | OpenFOAM: The Open Source CFD Toolbox           |
|  \\    /   O peration     | Version:  2412                                  |
|   \\  /    A nd           | Website:  www.openfoam.com                      |
|    \\/     M anipulation  |                                                 |
\*---------------------------------------------------------------------------*/
FoamFile
{
    version     2.0;
    format      ascii;
    arch        "LSB;label=32;scalar=64";
    class       volScalarField;
    location    "2.3e-06";
    object      T;
}
// * * * * * * * * * * * * * * * * * * * * * * * * * * * * * * * * * * * * * //

dimensions      [0 0 0 0 0 0 0];

internalField   nonuniform List<scalar> 
84
(
201.396
201.425
201.451
201.473
201.495
201.518
201.543
201.542
199.996
199.994
200
199.999
199.999
199.999
199.999
199.999
199.992
199.995
200
199.999
199.999
199.999
199.999
199.999
199.996
199.994
200
199.999
199.999
199.999
199.999
199.997
199.995
200
200
200
200
200
200.252
200.26
200.269
200.272
200.276
200.28
200.279
201.258
201.296
201.319
201.339
201.36
201.381
201.38
202.178
202.28
202.306
202.342
202.379
202.417
202.415
205.785
206.186
206.277
206.378
206.482
206.477
197.583
197.519
197.488
197.448
197.407
197.408
199.406
199.407
199.403
199.393
199.383
199.384
199.972
199.747
199.754
199.75
199.746
199.742
199.742
)
;

boundaryField
{
    inlet
    {
        type            calculated;
        value           nonuniform List<scalar> 0();
    }
    outlet2
    {
        type            calculated;
        value           uniform 0;
    }
    outlet1
    {
        type            calculated;
        value           uniform 0;
    }
    wall
    {
        type            calculated;
        value           uniform 0;
    }
    symmetryBottom
    {
        type            symmetry;
    }
    symmetryZ0
    {
        type            symmetry;
    }
    symmetryZ05
    {
        type            symmetry;
    }
    procBoundary0to1
    {
        type            processor;
        value           uniform 0;
    }
}


// ************************************************************************* //
