/*--------------------------------*- C++ -*----------------------------------*\
| =========                 |                                                 |
| \\      /  F ield         | OpenFOAM: The Open Source CFD Toolbox           |
|  \\    /   O peration     | Version:  2412                                  |
|   \\  /    A nd           | Website:  www.openfoam.com                      |
|    \\/     M anipulation  |                                                 |
\*---------------------------------------------------------------------------*/
FoamFile
{
    version     2.0;
    format      ascii;
    arch        "LSB;label=32;scalar=64";
    class       volScalarField;
    location    "7.6e-06";
    object      E;
}
// * * * * * * * * * * * * * * * * * * * * * * * * * * * * * * * * * * * * * //

dimensions      [0 0 0 0 0 0 0];

internalField   nonuniform List<scalar> 
84
(
95.5519
56.1849
61.1052
60.7043
60.7348
60.7393
60.7453
61.2873
102.38
60.3115
65.6349
65.2764
65.3798
65.4578
65.5398
66.114
100.951
60.5774
65.0413
64.7978
64.8824
64.9529
65.0263
65.5971
100.453
59.5244
64.7294
64.3638
64.4529
64.5166
65.0841
100.31
59.0336
64.2472
63.8735
63.9546
64.0099
64.5741
99.5842
58.5942
63.7637
63.3852
63.458
63.5049
64.0658
98.871
58.1691
63.2906
62.9082
62.9729
63.0117
63.5694
97.8135
58.1442
62.7728
62.452
62.5033
62.5349
63.0894
97.2439
57.4085
62.4241
62.0348
62.0853
62.6356
96.7106
56.8664
61.8602
61.4645
61.5061
62.0523
95.849
56.4763
61.3957
60.998
61.0315
61.5746
94.5367
56.2503
60.919
60.5452
60.569
60.5693
61.1107
)
;

boundaryField
{
    inlet
    {
        type            calculated;
        value           nonuniform List<scalar> 0();
    }
    outlet2
    {
        type            calculated;
        value           uniform 0;
    }
    outlet1
    {
        type            calculated;
        value           uniform 0;
    }
    wall
    {
        type            calculated;
        value           uniform 0;
    }
    symmetryBottom
    {
        type            symmetry;
    }
    symmetryZ0
    {
        type            symmetry;
    }
    symmetryZ05
    {
        type            symmetry;
    }
    procBoundary0to1
    {
        type            processor;
        value           uniform 0;
    }
}


// ************************************************************************* //
