/*--------------------------------*- C++ -*----------------------------------*\
| =========                 |                                                 |
| \\      /  F ield         | OpenFOAM: The Open Source CFD Toolbox           |
|  \\    /   O peration     | Version:  2412                                  |
|   \\  /    A nd           | Website:  www.openfoam.com                      |
|    \\/     M anipulation  |                                                 |
\*---------------------------------------------------------------------------*/
FoamFile
{
    version     2.0;
    format      ascii;
    arch        "LSB;label=32;scalar=64";
    class       volVectorField;
    location    "7.6e-06";
    object      rhoU;
}
// * * * * * * * * * * * * * * * * * * * * * * * * * * * * * * * * * * * * * //

dimensions      [0 0 0 0 0 0 0];

internalField   nonuniform List<vector> 
84
(
(0.0712547 0.000208354 2.15388e-19)
(0.0420415 0.000125692 -2.00706e-19)
(0.045672 0.00013815 -3.15303e-19)
(0.045378 0.000139255 2.08393e-19)
(0.0454003 0.000141342 -3.82758e-20)
(0.0454038 0.000143432 2.90322e-20)
(0.0454084 0.000145588 3.014e-19)
(0.0458108 0.000146581 2.89555e-20)
(0.0763076 -0.000230865 2.12276e-19)
(0.0451032 -0.000142154 -2.00807e-19)
(0.04903 -0.000155183 -4.20269e-19)
(0.0487677 -0.000156873 6.46713e-20)
(0.0488441 -0.000159501 -7.8346e-19)
(0.0489021 -0.000162167 2.14689e-19)
(0.048963 -0.000164926 6.41611e-19)
(0.0493892 -0.000165977 1.11598e-19)
(0.0752503 -0.000202611 -8.30045e-19)
(0.0452966 -0.000166313 1.79321e-19)
(0.0485901 -0.000150241 2.18734e-19)
(0.0484121 -0.000156083 -3.59407e-20)
(0.0484747 -0.000158313 -1.30455e-20)
(0.048527 -0.000160964 3.05413e-19)
(0.0485816 -0.000163683 -2.61471e-19)
(0.0490053 -0.000164728 -2.84617e-19)
(0.0748806 -0.000211135 -7.87111e-19)
(0.0445177 -0.000143522 3.6929e-19)
(0.0483575 -0.000155423 -5.0792e-20)
(0.0480898 -0.000157128 -6.97138e-19)
(0.0481557 -0.000159771 7.14871e-19)
(0.048203 -0.000162449 1.04794e-19)
(0.0486243 -0.000163489 -2.628e-19)
(0.0747732 -0.000230308 -4.59753e-19)
(0.0441532 -0.000140844 -1.10182e-19)
(0.0479992 -0.000154466 1.70296e-20)
(0.0477256 -0.000156034 5.13779e-21)
(0.0477854 -0.000158647 -2.32194e-19)
(0.0478265 -0.000161287 2.13981e-19)
(0.0482454 -0.000162322 4.46998e-19)
(0.074232 -0.000222214 -3.09208e-19)
(0.0438247 -0.000135577 3.83332e-19)
(0.0476381 -0.000148839 -5.31021e-20)
(0.0473609 -0.000150385 4.54635e-19)
(0.0474146 -0.000152952 -4.28014e-19)
(0.0474495 -0.000155549 3.58543e-19)
(0.0478659 -0.000156548 -7.48166e-19)
(0.0736846 -0.000177346 -1.30807e-22)
(0.0434982 -0.000108608 3.44916e-19)
(0.0472749 -0.000118873 -4.99649e-20)
(0.0469946 -0.00012014 2.88905e-21)
(0.0470421 -0.000122167 3.71598e-19)
(0.0470707 -0.000124221 3.35968e-20)
(0.0474847 -0.000125023 3.67327e-19)
(0.0728832 -0.000127804 9.1752e-21)
(0.0434664 -0.000112139 7.33087e-21)
(0.0468785 -9.80189e-05 -2.62614e-21)
(0.0466432 -0.000102427 -6.71227e-21)
(0.0466806 -0.000103883 -1.22535e-21)
(0.0467036 -0.000105667 3.36529e-21)
(0.0471151 -0.000106346 -2.85111e-19)
(0.0723834 -0.000122325 1.13832e-18)
(0.0428656 -8.28273e-05 -1.34616e-19)
(0.0465584 -8.98451e-05 -7.69216e-19)
(0.0462719 -9.0797e-05 -2.07695e-19)
(0.0463073 -9.23107e-05 4.33158e-19)
(0.0467153 -9.29125e-05 -6.87505e-20)
(0.0721616 -0.000129304 -3.94079e-19)
(0.0425729 -7.85501e-05 4.79151e-20)
(0.0462615 -8.62167e-05 -3.53455e-19)
(0.0459715 -8.69931e-05 4.02872e-19)
(0.0460028 -8.83647e-05 6.54365e-19)
(0.0464086 -8.89532e-05 -8.86401e-20)
(0.0714814 -0.000134075 -4.77613e-19)
(0.0422595 -9.12299e-05 6.37245e-20)
(0.0458903 -9.7729e-05 -4.09126e-21)
(0.0455987 -9.88338e-05 6.81001e-19)
(0.0456233 -0.000100408 6.77206e-19)
(0.0460267 -0.000101073 1.39636e-20)
(0.0704943 -2.38774e-05 -4.54529e-20)
(0.042087 -0.00012863 4.06071e-21)
(0.0455305 -0.00011218 -2.55489e-22)
(0.0452565 -0.000115892 4.22125e-19)
(0.0452739 -0.000117508 -5.9311e-20)
(0.0452743 -0.000119341 5.17263e-21)
(0.0456763 -0.000120139 -3.42824e-19)
)
;

boundaryField
{
    inlet
    {
        type            calculated;
        value           nonuniform List<vector> 0();
    }
    outlet2
    {
        type            calculated;
        value           uniform (0 0 0);
    }
    outlet1
    {
        type            calculated;
        value           uniform (0 0 0);
    }
    wall
    {
        type            calculated;
        value           uniform (0 0 0);
    }
    symmetryBottom
    {
        type            symmetry;
    }
    symmetryZ0
    {
        type            symmetry;
    }
    symmetryZ05
    {
        type            symmetry;
    }
    procBoundary0to1
    {
        type            processor;
        value           uniform (0 0 0);
    }
}


// ************************************************************************* //
