/*--------------------------------*- C++ -*----------------------------------*\
| =========                 |                                                 |
| \\      /  F ield         | OpenFOAM: The Open Source CFD Toolbox           |
|  \\    /   O peration     | Version:  2412                                  |
|   \\  /    A nd           | Website:  www.openfoam.com                      |
|    \\/     M anipulation  |                                                 |
\*---------------------------------------------------------------------------*/
FoamFile
{
    version     2.0;
    format      ascii;
    arch        "LSB;label=32;scalar=64";
    class       volScalarField;
    location    "5e-07";
    object      E;
}
// * * * * * * * * * * * * * * * * * * * * * * * * * * * * * * * * * * * * * //

dimensions      [0 0 0 0 0 0 0];

internalField   nonuniform List<scalar> 
84
(
99.4605
96.2155
96.2372
96.2373
96.2374
96.2375
96.2376
96.2878
99.9245
96.6738
96.7024
96.7095
96.7168
96.7244
96.7322
96.7825
99.8745
96.6291
96.6553
96.6616
96.6682
96.675
96.6821
96.7324
99.8341
96.5864
96.6138
96.6196
96.6257
96.6319
96.6822
99.7893
96.5393
96.566
96.5711
96.5764
96.5818
96.6321
99.7421
96.4926
96.5185
96.5229
96.5274
96.5321
96.5824
99.6958
96.4468
96.4721
96.4757
96.4795
96.4835
96.5337
99.6482
96.4023
96.426
96.4289
96.432
96.4351
96.4854
99.6103
96.3633
96.3873
96.3897
96.3922
96.4424
99.5488
96.3008
96.3239
96.3253
96.3267
96.377
99.5037
96.2567
96.2791
96.2798
96.2806
96.3308
99.409
96.2107
96.2315
96.2314
96.2314
96.2315
96.2816
)
;

boundaryField
{
    inlet
    {
        type            calculated;
        value           nonuniform List<scalar> 0();
    }
    outlet2
    {
        type            calculated;
        value           uniform 0;
    }
    outlet1
    {
        type            calculated;
        value           uniform 0;
    }
    wall
    {
        type            calculated;
        value           uniform 0;
    }
    symmetryBottom
    {
        type            symmetry;
    }
    symmetryZ0
    {
        type            symmetry;
    }
    symmetryZ05
    {
        type            symmetry;
    }
    procBoundary0to1
    {
        type            processor;
        value           uniform 0;
    }
}


// ************************************************************************* //
