/*--------------------------------*- C++ -*----------------------------------*\
| =========                 |                                                 |
| \\      /  F ield         | OpenFOAM: The Open Source CFD Toolbox           |
|  \\    /   O peration     | Version:  2412                                  |
|   \\  /    A nd           | Website:  www.openfoam.com                      |
|    \\/     M anipulation  |                                                 |
\*---------------------------------------------------------------------------*/
FoamFile
{
    version     2.0;
    format      ascii;
    arch        "LSB;label=32;scalar=64";
    class       volVectorField;
    location    "5e-07";
    object      rhoU;
}
// * * * * * * * * * * * * * * * * * * * * * * * * * * * * * * * * * * * * * //

dimensions      [0 0 0 0 0 0 0];

internalField   nonuniform List<vector> 
84
(
(0.0741278 1.49482e-05 1.65496e-20)
(0.0717229 1.4737e-05 -1.77376e-20)
(0.071739 1.49579e-05 -3.93027e-20)
(0.071739 1.5183e-05 1.8912e-20)
(0.0717391 1.54151e-05 3.29885e-22)
(0.0717392 1.56543e-05 2.09276e-21)
(0.0717393 1.5901e-05 3.57779e-20)
(0.0717765 1.59067e-05 7.77118e-21)
(0.074471 -1.48942e-05 1.3587e-20)
(0.072062 -1.47647e-05 -1.50146e-20)
(0.0720831 -1.49862e-05 -4.78657e-20)
(0.0720883 -1.52128e-05 8.19166e-22)
(0.0720938 -1.54464e-05 -7.90185e-20)
(0.0720994 -1.56873e-05 8.27999e-21)
(0.0721052 -1.59358e-05 6.78606e-20)
(0.0721425 -1.59401e-05 1.79391e-20)
(0.074434 -1.47801e-05 -7.15765e-20)
(0.0720288 -1.48194e-05 1.12942e-20)
(0.0720482 -1.49813e-05 2.33501e-20)
(0.0720529 -1.52081e-05 -4.20591e-22)
(0.0720577 -1.54415e-05 -2.95567e-22)
(0.0720628 -1.56822e-05 3.29444e-20)
(0.072068 -1.59306e-05 -2.63211e-20)
(0.0721053 -1.59348e-05 -3.29884e-20)
(0.074404 -1.50091e-05 -7.3185e-20)
(0.0719972 -1.49757e-05 3.21422e-20)
(0.0720174 -1.52033e-05 -4.70525e-22)
(0.0720217 -1.54366e-05 -7.55138e-20)
(0.0720262 -1.56772e-05 6.68129e-20)
(0.0720308 -1.59254e-05 1.73961e-20)
(0.0720681 -1.59296e-05 -2.53059e-20)
(0.0743708 -1.50994e-05 -4.06041e-20)
(0.0719623 -1.49704e-05 -1.64946e-20)
(0.071982 -1.51982e-05 1.13358e-22)
(0.0719857 -1.54313e-05 2.02876e-23)
(0.0719897 -1.56717e-05 -2.13868e-20)
(0.0719937 -1.59198e-05 2.06608e-20)
(0.072031 -1.5924e-05 5.15637e-20)
(0.0743355 -1.43161e-05 -2.57069e-20)
(0.0719273 -1.41887e-05 4.01261e-20)
(0.0719465 -1.44048e-05 -2.61872e-22)
(0.0719497 -1.46259e-05 4.96907e-20)
(0.0719531 -1.48539e-05 -4.35633e-20)
(0.0719565 -1.50891e-05 3.54408e-20)
(0.0719938 -1.50932e-05 -7.95811e-20)
(0.0743 -1.15512e-05 -8.17634e-25)
(0.0718923 -1.14395e-05 3.84296e-20)
(0.0719109 -1.16137e-05 -2.64966e-22)
(0.0719135 -1.17919e-05 -1.2792e-22)
(0.0719163 -1.19757e-05 4.33812e-20)
(0.0719192 -1.21653e-05 6.90531e-21)
(0.0719565 -1.21688e-05 4.43408e-20)
(0.0742635 -9.64871e-06 -6.1394e-23)
(0.0718581 -9.68129e-06 -1.65822e-23)
(0.0718755 -9.78129e-06 -1.2673e-22)
(0.0718776 -9.93165e-06 -5.52989e-23)
(0.0718798 -1.00865e-05 2.89384e-23)
(0.0718821 -1.02462e-05 -2.82052e-23)
(0.0719194 -1.02493e-05 -3.25177e-20)
(0.0742304 -8.94838e-06 8.09271e-20)
(0.0718241 -8.90088e-06 -5.47699e-22)
(0.0718417 -9.03846e-06 -8.23286e-20)
(0.0718433 -9.17928e-06 -3.39117e-20)
(0.071845 -9.32455e-06 3.97747e-20)
(0.0718822 -9.32749e-06 -2.29182e-23)
(0.0741961 -9.07469e-06 -3.29704e-20)
(0.0717891 -8.96643e-06 2.25195e-22)
(0.0718062 -9.10478e-06 -4.12248e-20)
(0.0718072 -9.24612e-06 4.20934e-20)
(0.0718084 -9.39192e-06 7.73271e-20)
(0.0718456 -9.39497e-06 1.20934e-24)
(0.0741601 -1.01291e-05 -4.14667e-20)
(0.0717538 -1.00418e-05 2.70787e-22)
(0.0717703 -1.01967e-05 1.34167e-23)
(0.0717708 -1.03551e-05 7.63443e-20)
(0.0717714 -1.05185e-05 8.4398e-20)
(0.0718086 -1.05219e-05 1.03106e-20)
(0.074089 -1.18956e-07 -2.54871e-22)
(0.0717191 -1.19938e-05 8.47685e-25)
(0.0717344 -1.20654e-05 -1.38792e-27)
(0.0717344 -1.22503e-05 4.96797e-20)
(0.0717344 -1.24406e-05 -3.44451e-22)
(0.0717344 -1.26368e-05 1.19353e-24)
(0.0717716 -1.26412e-05 -3.8302e-20)
)
;

boundaryField
{
    inlet
    {
        type            calculated;
        value           nonuniform List<vector> 0();
    }
    outlet2
    {
        type            calculated;
        value           uniform (0 0 0);
    }
    outlet1
    {
        type            calculated;
        value           uniform (0 0 0);
    }
    wall
    {
        type            calculated;
        value           uniform (0 0 0);
    }
    symmetryBottom
    {
        type            symmetry;
    }
    symmetryZ0
    {
        type            symmetry;
    }
    symmetryZ05
    {
        type            symmetry;
    }
    procBoundary0to1
    {
        type            processor;
        value           uniform (0 0 0);
    }
}


// ************************************************************************* //
