/*--------------------------------*- C++ -*----------------------------------*\
| =========                 |                                                 |
| \\      /  F ield         | OpenFOAM: The Open Source CFD Toolbox           |
|  \\    /   O peration     | Version:  2412                                  |
|   \\  /    A nd           | Website:  www.openfoam.com                      |
|    \\/     M anipulation  |                                                 |
\*---------------------------------------------------------------------------*/
FoamFile
{
    version     2.0;
    format      ascii;
    arch        "LSB;label=32;scalar=64";
    class       volScalarField;
    location    "2.3e-06";
    object      E;
}
// * * * * * * * * * * * * * * * * * * * * * * * * * * * * * * * * * * * * * //

dimensions      [0 0 0 0 0 0 0];

internalField   nonuniform List<scalar> 
84
(
99.4319
65.8978
68.792
99.4371
65.9082
68.8015
99.4358
65.9072
68.8004
99.4358
65.9072
68.8004
99.4358
65.9072
68.8004
99.4358
65.9072
68.8004
99.4358
65.9072
68.8004
99.4358
65.9072
68.8004
99.4358
65.9072
68.8004
99.4358
65.9072
68.8004
99.4358
65.9072
68.8004
99.4359
65.9044
68.7982
86.2431
85.5681
85.7721
88.089
87.367
87.5756
87.8995
87.1823
87.3898
87.7104
86.998
87.0368
85.5052
87.5216
86.8139
86.8499
87.0421
87.3341
86.6312
86.6643
86.8562
87.1508
86.4524
86.4828
86.6744
86.9698
86.2759
86.3036
86.4945
86.807
86.1165
86.1418
86.1502
85.5349
86.5664
85.8835
85.9052
85.9102
86.102
86.3922
85.7134
85.7325
85.7352
85.9454
86.2102
85.5358
85.5522
85.7421
)
;

boundaryField
{
    inlet
    {
        type            calculated;
        value           uniform 0;
    }
    outlet2
    {
        type            calculated;
        value           uniform 0;
    }
    outlet1
    {
        type            calculated;
        value           nonuniform List<scalar> 0();
    }
    wall
    {
        type            calculated;
        value           uniform 0;
    }
    symmetryBottom
    {
        type            symmetry;
    }
    symmetryZ0
    {
        type            symmetry;
    }
    symmetryZ05
    {
        type            symmetry;
    }
    procBoundary1to0
    {
        type            processor;
        value           uniform 0;
    }
}


// ************************************************************************* //
