/*--------------------------------*- C++ -*----------------------------------*\
| =========                 |                                                 |
| \\      /  F ield         | OpenFOAM: The Open Source CFD Toolbox           |
|  \\    /   O peration     | Version:  2412                                  |
|   \\  /    A nd           | Website:  www.openfoam.com                      |
|    \\/     M anipulation  |                                                 |
\*---------------------------------------------------------------------------*/
FoamFile
{
    version     2.0;
    format      ascii;
    arch        "LSB;label=32;scalar=64";
    class       volScalarField;
    location    "1.2e-06";
    object      rho_dof0;
}
// * * * * * * * * * * * * * * * * * * * * * * * * * * * * * * * * * * * * * //

dimensions      [0 0 0 0 0 0 0];

internalField   nonuniform List<scalar> 
84
(
2.81087e-05
2.59801e-05
2.60188e-05
2.60185e-05
2.60187e-05
2.60188e-05
2.6019e-05
2.60515e-05
2.8417e-05
2.6271e-05
2.63144e-05
2.63186e-05
2.63234e-05
2.63282e-05
2.63333e-05
2.63661e-05
2.83798e-05
2.62453e-05
2.62839e-05
2.62877e-05
2.6292e-05
2.62964e-05
2.63009e-05
2.63337e-05
2.83531e-05
2.62147e-05
2.62573e-05
2.62606e-05
2.62646e-05
2.62686e-05
2.63014e-05
2.83259e-05
2.61843e-05
2.62264e-05
2.62293e-05
2.62328e-05
2.62363e-05
2.6269e-05
2.82939e-05
2.6154e-05
2.61956e-05
2.61981e-05
2.6201e-05
2.6204e-05
2.62367e-05
2.82619e-05
2.61238e-05
2.61649e-05
2.61668e-05
2.61693e-05
2.61718e-05
2.62045e-05
2.82269e-05
2.6096e-05
2.61342e-05
2.61357e-05
2.61377e-05
2.61397e-05
2.61723e-05
2.81969e-05
2.60646e-05
2.61047e-05
2.61058e-05
2.61073e-05
2.61399e-05
2.81678e-05
2.60345e-05
2.60742e-05
2.60747e-05
2.60758e-05
2.61084e-05
2.81339e-05
2.60038e-05
2.60429e-05
2.6043e-05
2.60435e-05
2.60761e-05
2.80699e-05
2.59748e-05
2.60118e-05
2.60114e-05
2.60114e-05
2.60115e-05
2.6044e-05
)
;

boundaryField
{
    inlet
    {
        type            calculated;
        value           nonuniform List<scalar> 0();
    }
    outlet2
    {
        type            calculated;
        value           uniform 2.81085e-05;
    }
    outlet1
    {
        type            calculated;
        value           uniform 2.81085e-05;
    }
    wall
    {
        type            calculated;
        value           uniform 2.81085e-05;
    }
    symmetryBottom
    {
        type            symmetry;
    }
    symmetryZ0
    {
        type            symmetry;
    }
    symmetryZ05
    {
        type            symmetry;
    }
    procBoundary0to1
    {
        type            processor;
        value           uniform 2.81085e-05;
    }
}


// ************************************************************************* //
