/*--------------------------------*- C++ -*----------------------------------*\
| =========                 |                                                 |
| \\      /  F ield         | OpenFOAM: The Open Source CFD Toolbox           |
|  \\    /   O peration     | Version:  2412                                  |
|   \\  /    A nd           | Website:  www.openfoam.com                      |
|    \\/     M anipulation  |                                                 |
\*---------------------------------------------------------------------------*/
FoamFile
{
    version     2.0;
    format      ascii;
    arch        "LSB;label=32;scalar=64";
    class       volVectorField;
    location    "1.2e-06";
    object      rhoU;
}
// * * * * * * * * * * * * * * * * * * * * * * * * * * * * * * * * * * * * * //

dimensions      [0 0 0 0 0 0 0];

internalField   nonuniform List<vector> 
84
(
(0.0740984 3.57046e-05 3.95611e-20)
(0.0684543 3.36095e-05 -3.82138e-20)
(0.0685575 3.41514e-05 -9.06995e-20)
(0.0685567 3.46628e-05 4.13808e-20)
(0.0685569 3.51903e-05 -5.40831e-23)
(0.0685572 3.5734e-05 4.89151e-21)
(0.0685575 3.62949e-05 8.16803e-20)
(0.0686438 3.63282e-05 1.67001e-20)
(0.0749225 -3.5947e-05 3.60439e-20)
(0.0692318 -3.40706e-05 -3.55278e-20)
(0.0693476 -3.46189e-05 -1.10571e-19)
(0.0693586 -3.51456e-05 3.2054e-21)
(0.0693712 -3.5689e-05 -1.90203e-19)
(0.0693842 -3.62494e-05 2.34107e-20)
(0.0693976 -3.68277e-05 1.57472e-19)
(0.0694846 -3.68575e-05 4.03358e-20)
(0.0748238 -3.51695e-05 -1.69291e-19)
(0.0691638 -3.45763e-05 2.55454e-20)
(0.0692667 -3.45746e-05 5.5617e-20)
(0.0692767 -3.5111e-05 -1.62299e-21)
(0.0692881 -3.56532e-05 -9.44642e-22)
(0.0692997 -3.62125e-05 7.68609e-20)
(0.0693118 -3.67897e-05 -6.16543e-20)
(0.0693987 -3.68194e-05 -7.96795e-20)
(0.0747531 -3.58022e-05 -1.69946e-19)
(0.0690826 -3.452e-05 7.80338e-20)
(0.0691961 -3.50766e-05 -1.9952e-21)
(0.069205 -3.56175e-05 -1.76318e-19)
(0.0692153 -3.61757e-05 1.58749e-19)
(0.069226 -3.67517e-05 3.84239e-20)
(0.0693129 -3.67814e-05 -5.94726e-20)
(0.074681 -3.63783e-05 -9.46483e-20)
(0.0690021 -3.44803e-05 -3.55246e-20)
(0.0691143 -3.50427e-05 6.77635e-22)
(0.069122 -3.55826e-05 1.78492e-22)
(0.069131 -3.61397e-05 -5.38154e-20)
(0.0691404 -3.67145e-05 4.31061e-20)
(0.0692272 -3.67442e-05 1.19278e-19)
(0.0745959 -3.45481e-05 -5.85352e-20)
(0.0689215 -3.27271e-05 9.38908e-20)
(0.0690325 -3.32627e-05 -1.70722e-21)
(0.0690388 -3.37763e-05 1.16668e-19)
(0.0690466 -3.43064e-05 -9.89796e-20)
(0.0690546 -3.48534e-05 8.30376e-20)
(0.0691413 -3.48819e-05 -1.84344e-19)
(0.0745104 -2.78508e-05 -5.18527e-24)
(0.0688408 -2.63612e-05 9.51598e-20)
(0.0689504 -2.67924e-05 -1.68771e-21)
(0.0689555 -2.72056e-05 -2.81974e-22)
(0.0689619 -2.76321e-05 1.0019e-19)
(0.0689686 -2.80722e-05 1.82078e-20)
(0.0690553 -2.80956e-05 1.03511e-19)
(0.0744175 -2.28819e-05 1.07396e-22)
(0.0687669 -2.26396e-05 9.18474e-23)
(0.0688688 -2.25716e-05 -2.98086e-22)
(0.0688727 -2.29286e-05 -2.55145e-22)
(0.0688779 -2.32884e-05 1.5525e-23)
(0.0688832 -2.36597e-05 1.16485e-24)
(0.0689698 -2.36797e-05 -7.5457e-20)
(0.0743379 -2.12985e-05 1.98937e-19)
(0.0686836 -2.0453e-05 -3.55786e-21)
(0.0687906 -2.07895e-05 -1.90999e-19)
(0.0687933 -2.11141e-05 -7.74459e-20)
(0.0687973 -2.14493e-05 9.866e-20)
(0.0688838 -2.14679e-05 -5.39754e-23)
(0.074261 -2.17216e-05 -7.27224e-20)
(0.0686043 -2.05041e-05 1.36421e-21)
(0.0687101 -2.08431e-05 -9.56298e-20)
(0.0687116 -2.11658e-05 9.59418e-20)
(0.0687143 -2.14989e-05 1.76442e-19)
(0.0688007 -2.15178e-05 1.15549e-23)
(0.0741715 -2.40481e-05 -9.76438e-20)
(0.068523 -2.2995e-05 1.74594e-21)
(0.0686274 -2.33696e-05 3.45947e-23)
(0.0686276 -2.37321e-05 1.7521e-19)
(0.068629 -2.41063e-05 1.92237e-19)
(0.0687153 -2.41275e-05 2.35586e-20)
(0.074002 -7.5814e-07 -1.60738e-21)
(0.0684464 -2.78783e-05 1.76963e-23)
(0.0685452 -2.7612e-05 -1.31314e-25)
(0.0685441 -2.80432e-05 1.1509e-19)
(0.0685442 -2.84779e-05 -2.13071e-21)
(0.0685442 -2.89263e-05 2.37135e-23)
(0.0686305 -2.89525e-05 -9.72463e-20)
)
;

boundaryField
{
    inlet
    {
        type            calculated;
        value           nonuniform List<vector> 0();
    }
    outlet2
    {
        type            calculated;
        value           uniform (0 0 0);
    }
    outlet1
    {
        type            calculated;
        value           uniform (0 0 0);
    }
    wall
    {
        type            calculated;
        value           uniform (0 0 0);
    }
    symmetryBottom
    {
        type            symmetry;
    }
    symmetryZ0
    {
        type            symmetry;
    }
    symmetryZ05
    {
        type            symmetry;
    }
    procBoundary0to1
    {
        type            processor;
        value           uniform (0 0 0);
    }
}


// ************************************************************************* //
