/*--------------------------------*- C++ -*----------------------------------*\
| =========                 |                                                 |
| \\      /  F ield         | OpenFOAM: The Open Source CFD Toolbox           |
|  \\    /   O peration     | Version:  2412                                  |
|   \\  /    A nd           | Website:  www.openfoam.com                      |
|    \\/     M anipulation  |                                                 |
\*---------------------------------------------------------------------------*/
FoamFile
{
    version     2.0;
    format      ascii;
    arch        "LSB;label=32;scalar=64";
    class       volScalarField;
    location    "5.5e-06";
    object      E_dof0;
}
// * * * * * * * * * * * * * * * * * * * * * * * * * * * * * * * * * * * * * //

dimensions      [0 0 0 0 0 0 0];

internalField   nonuniform List<scalar> 
84
(
99.4372
28.4805
42.8342
99.4634
28.5044
42.8564
99.4568
28.5013
42.8525
99.4568
28.5013
42.8525
99.4568
28.5013
42.8525
99.4568
28.5013
42.8525
99.4568
28.5013
42.8525
99.4568
28.5013
42.8525
99.4568
28.5013
42.8525
99.4568
28.5013
42.8525
99.4568
28.5013
42.8525
99.457
28.4959
42.8495
72.4202
69.3441
69.9235
76.2607
72.8315
73.4513
75.8579
72.4655
73.0774
75.4568
72.1013
72.3591
69.1927
75.0572
71.7384
71.9881
72.379
74.6597
71.3774
71.619
72.0085
74.2715
71.0243
71.2582
71.6463
73.8923
70.6794
70.9057
71.2903
73.5442
70.3595
70.5792
70.5874
69.3458
73.0581
69.9255
70.1349
70.1366
70.526
72.6873
69.5875
69.7895
69.7875
70.2774
72.3141
69.2476
69.4424
69.8226
)
;

boundaryField
{
    inlet
    {
        type            calculated;
        value           uniform 99.4306;
    }
    outlet2
    {
        type            calculated;
        value           uniform 99.4306;
    }
    outlet1
    {
        type            calculated;
        value           nonuniform List<scalar> 0();
    }
    wall
    {
        type            calculated;
        value           uniform 99.4306;
    }
    symmetryBottom
    {
        type            symmetry;
    }
    symmetryZ0
    {
        type            symmetry;
    }
    symmetryZ05
    {
        type            symmetry;
    }
    procBoundary1to0
    {
        type            processor;
        value           uniform 99.4306;
    }
}


// ************************************************************************* //
