/*--------------------------------*- C++ -*----------------------------------*\
| =========                 |                                                 |
| \\      /  F ield         | OpenFOAM: The Open Source CFD Toolbox           |
|  \\    /   O peration     | Version:  2412                                  |
|   \\  /    A nd           | Website:  www.openfoam.com                      |
|    \\/     M anipulation  |                                                 |
\*---------------------------------------------------------------------------*/
FoamFile
{
    version     2.0;
    format      ascii;
    arch        "LSB;label=32;scalar=64";
    class       volScalarField;
    location    "5.5e-06";
    object      rho;
}
// * * * * * * * * * * * * * * * * * * * * * * * * * * * * * * * * * * * * * //

dimensions      [0 0 0 0 0 0 0];

internalField   nonuniform List<scalar> 
84
(
2.81104e-05
8.23869e-06
1.22157e-05
2.81178e-05
8.24554e-06
1.2222e-05
2.81159e-05
8.24466e-06
1.22209e-05
2.81159e-05
8.24466e-06
1.22209e-05
2.81159e-05
8.24466e-06
1.22209e-05
2.81159e-05
8.24466e-06
1.22209e-05
2.81159e-05
8.24466e-06
1.22209e-05
2.81159e-05
8.24466e-06
1.22209e-05
2.81159e-05
8.24466e-06
1.22209e-05
2.81159e-05
8.24466e-06
1.22209e-05
2.81159e-05
8.24465e-06
1.22209e-05
2.8116e-05
8.24313e-06
1.22201e-05
2.05515e-05
1.96971e-05
1.98584e-05
2.16166e-05
2.06654e-05
2.08377e-05
2.15038e-05
2.05627e-05
2.07328e-05
2.13915e-05
2.04606e-05
2.05315e-05
1.96443e-05
2.12796e-05
2.03588e-05
2.04275e-05
2.05371e-05
2.11677e-05
2.02571e-05
2.03235e-05
2.04327e-05
2.1056e-05
2.01556e-05
2.02198e-05
2.03286e-05
2.09462e-05
2.00559e-05
2.01178e-05
2.02257e-05
2.08314e-05
1.99516e-05
2.00112e-05
2.00133e-05
1.96904e-05
2.07313e-05
1.98603e-05
1.99181e-05
1.99188e-05
2.00283e-05
2.0619e-05
1.97583e-05
1.98138e-05
1.98133e-05
1.99506e-05
2.05125e-05
1.96612e-05
1.97146e-05
1.98213e-05
)
;

boundaryField
{
    inlet
    {
        type            calculated;
        value           uniform 0;
    }
    outlet2
    {
        type            calculated;
        value           uniform 0;
    }
    outlet1
    {
        type            calculated;
        value           nonuniform List<scalar> 0();
    }
    wall
    {
        type            calculated;
        value           uniform 0;
    }
    symmetryBottom
    {
        type            symmetry;
    }
    symmetryZ0
    {
        type            symmetry;
    }
    symmetryZ05
    {
        type            symmetry;
    }
    procBoundary1to0
    {
        type            processor;
        value           uniform 0;
    }
}


// ************************************************************************* //
