/*--------------------------------*- C++ -*----------------------------------*\
| =========                 |                                                 |
| \\      /  F ield         | OpenFOAM: The Open Source CFD Toolbox           |
|  \\    /   O peration     | Version:  2412                                  |
|   \\  /    A nd           | Website:  www.openfoam.com                      |
|    \\/     M anipulation  |                                                 |
\*---------------------------------------------------------------------------*/
FoamFile
{
    version     2.0;
    format      ascii;
    arch        "LSB;label=32;scalar=64";
    class       volVectorField;
    location    "5.5e-06";
    object      rhoU_dof0;
}
// * * * * * * * * * * * * * * * * * * * * * * * * * * * * * * * * * * * * * //

dimensions      [0 0 0 0 0 0 0];

internalField   nonuniform List<vector> 
84
(
(0.0741098 -4.84234e-07 0)
(0.0214686 -6.17331e-07 0)
(0.0320616 -5.10053e-07 -1.21791e-19)
(0.0741293 -0.000124174 0)
(0.0214865 -4.98976e-05 0)
(0.0320782 -6.68168e-05 -1.17882e-19)
(0.0741244 -0.000123699 0)
(0.0214842 -4.96862e-05 0)
(0.0320753 -6.65438e-05 1.58469e-19)
(0.0741244 -0.000123699 0)
(0.0214842 -4.96862e-05 0)
(0.0320753 -6.65438e-05 -2.10103e-19)
(0.0741244 -0.000123699 0)
(0.0214842 -4.96862e-05 0)
(0.0320753 -6.65438e-05 -3.16982e-19)
(0.0741244 -0.000123699 0)
(0.0214842 -4.96862e-05 0)
(0.0320753 -6.65438e-05 2.0531e-19)
(0.0741244 -0.000123699 0)
(0.0214842 -4.96862e-05 0)
(0.0320753 -6.65438e-05 -2.25716e-19)
(0.0741244 -0.000123699 0)
(0.0214842 -4.96862e-05 0)
(0.0320753 -6.65438e-05 -2.61561e-19)
(0.0741244 -0.000123699 0)
(0.0214842 -4.96862e-05 0)
(0.0320753 -6.65438e-05 1.20201e-19)
(0.0741244 -0.000123699 0)
(0.0214842 -4.96861e-05 0)
(0.0320753 -6.65438e-05 -2.27339e-19)
(0.0741244 -0.000123699 0)
(0.0214842 -4.96829e-05 0)
(0.0320753 -6.65419e-05 -6.16072e-19)
(0.0741246 -0.000123715 0)
(0.0214802 -4.92938e-05 0)
(0.0320731 -6.63231e-05 0)
(0.0540675 0.000119242 1.24897e-20)
(0.0517953 0.000108332 1.28634e-19)
(0.0522238 0.00010957 1.32851e-20)
(0.0569115 -0.000121191 1.2028e-20)
(0.0543794 -0.000117672 1.3911e-19)
(0.0548375 -0.000118454 -3.47044e-21)
(0.0566127 -0.000120602 -1.69814e-20)
(0.0541077 -0.000117107 -6.56872e-20)
(0.05456 -0.000117765 -2.32407e-19)
(0.0563152 -0.000119996 2.18412e-20)
(0.0538373 -0.000116547 -3.49089e-21)
(0.0540269 -0.000118587 2.32883e-22)
(0.0516773 7.93213e-06 2.06657e-19)
(0.0560187 -0.000119427 -3.38438e-20)
(0.0535678 -0.000116018 9.23735e-22)
(0.0537514 -0.00011804 -2.12184e-21)
(0.0540416 -0.0001185 2.11783e-19)
(0.0557217 -0.000114025 -2.14751e-20)
(0.053298 -0.000111137 -1.34798e-19)
(0.0534756 -0.000113071 8.28343e-21)
(0.0537647 -0.000113514 1.47216e-19)
(0.0554237 -8.99276e-05 2.55658e-20)
(0.0530271 -8.91718e-05 -2.45566e-21)
(0.0531987 -9.0614e-05 -1.07674e-22)
(0.0534868 -9.09745e-05 -1.15695e-21)
(0.0551319 -7.50594e-05 3.14191e-20)
(0.0527618 -7.55956e-05 -1.36791e-19)
(0.0529276 -7.67509e-05 1.50131e-19)
(0.053213 -7.69715e-05 2.03824e-21)
(0.0548266 -6.58168e-05 -1.21016e-20)
(0.0524833 -6.71452e-05 -2.04298e-19)
(0.0526431 -6.80898e-05 -1.86829e-19)
(0.0526483 -6.90915e-05 2.18045e-19)
(0.051798 8.36955e-06 1.18786e-18)
(0.054565 -6.41465e-05 2.69196e-20)
(0.052248 -6.56117e-05 -1.97953e-19)
(0.0524025 -6.64872e-05 1.44554e-19)
(0.0524043 -6.74341e-05 2.71578e-19)
(0.0526944 -6.81459e-05 1.75726e-19)
(0.0542681 -7.34393e-05 6.67809e-20)
(0.0519777 -7.40274e-05 -4.02489e-21)
(0.0521262 -7.50967e-05 4.23616e-22)
(0.0521249 -7.62571e-05 -3.57168e-22)
(0.0524883 -8.2011e-05 -2.13938e-19)
(0.0539866 -8.9137e-05 1.46505e-22)
(0.0517212 -8.82333e-05 1.91136e-19)
(0.0518643 -8.9604e-05 -1.74719e-20)
(0.0521466 -8.99223e-05 -2.72246e-19)
)
;

boundaryField
{
    inlet
    {
        type            calculated;
        value           uniform (0.0741049 0 0);
    }
    outlet2
    {
        type            calculated;
        value           uniform (0.0741049 0 0);
    }
    outlet1
    {
        type            calculated;
        value           nonuniform List<vector> 0();
    }
    wall
    {
        type            calculated;
        value           uniform (0.0741049 0 0);
    }
    symmetryBottom
    {
        type            symmetry;
    }
    symmetryZ0
    {
        type            symmetry;
    }
    symmetryZ05
    {
        type            symmetry;
    }
    procBoundary1to0
    {
        type            processor;
        value           uniform (0.0741049 0 0);
    }
}


// ************************************************************************* //
