/*--------------------------------*- C++ -*----------------------------------*\
| =========                 |                                                 |
| \\      /  F ield         | OpenFOAM: The Open Source CFD Toolbox           |
|  \\    /   O peration     | Version:  2412                                  |
|   \\  /    A nd           | Website:  www.openfoam.com                      |
|    \\/     M anipulation  |                                                 |
\*---------------------------------------------------------------------------*/
FoamFile
{
    version     2.0;
    format      ascii;
    arch        "LSB;label=32;scalar=64";
    class       volVectorField;
    location    "1.4e-06";
    object      rhoU;
}
// * * * * * * * * * * * * * * * * * * * * * * * * * * * * * * * * * * * * * //

dimensions      [0 0 0 0 0 0 0];

internalField   nonuniform List<vector> 
84
(
(0.0740775 4.15903e-05 4.48996e-20)
(0.0675345 3.86373e-05 -4.64123e-20)
(0.0676759 3.92813e-05 -1.03523e-19)
(0.0676743 3.98684e-05 4.75003e-20)
(0.0676747 4.04743e-05 -3.3641e-22)
(0.067675 4.1099e-05 5.66896e-21)
(0.0676754 4.17432e-05 9.52428e-20)
(0.0677751 4.17883e-05 2.0747e-20)
(0.0750389 -4.19987e-05 4.25132e-20)
(0.0684297 -3.92962e-05 -4.23797e-20)
(0.068586 -3.99487e-05 -1.27575e-19)
(0.0685982 -4.05574e-05 4.13071e-21)
(0.0686127 -4.11856e-05 -2.20387e-19)
(0.0686277 -4.18337e-05 2.77458e-20)
(0.0686431 -4.25024e-05 1.83095e-19)
(0.0687438 -4.25435e-05 4.62968e-20)
(0.0749205 -4.09277e-05 -1.95866e-19)
(0.0683542 -4.00129e-05 2.91419e-20)
(0.0684925 -3.98839e-05 6.35067e-20)
(0.0685037 -4.05097e-05 -2.08806e-21)
(0.0685167 -4.11363e-05 -1.17656e-21)
(0.0685302 -4.17828e-05 8.95196e-20)
(0.0685441 -4.24499e-05 -7.05369e-20)
(0.0686447 -4.24909e-05 -9.32752e-20)
(0.0748384 -4.16939e-05 -1.97351e-19)
(0.0682577 -3.98029e-05 9.11796e-20)
(0.0684112 -4.04623e-05 -2.61253e-21)
(0.0684209 -4.1087e-05 -2.03942e-19)
(0.0684329 -4.17319e-05 1.83647e-19)
(0.0684452 -4.23974e-05 4.31544e-20)
(0.0685457 -4.24384e-05 -6.83745e-20)
(0.0747568 -4.24814e-05 -1.08808e-19)
(0.0681648 -3.97467e-05 -4.30141e-20)
(0.0683169 -4.04159e-05 9.16997e-22)
(0.0683252 -4.1039e-05 2.5014e-22)
(0.0683356 -4.16825e-05 -6.36167e-20)
(0.0683464 -4.23465e-05 4.91745e-20)
(0.0684468 -4.23875e-05 1.36928e-19)
(0.0746574 -4.03636e-05 -6.75165e-20)
(0.0680719 -3.77421e-05 1.10399e-19)
(0.0682225 -3.838e-05 -2.33834e-21)
(0.0682293 -3.89735e-05 1.34548e-19)
(0.0682383 -3.95863e-05 -1.13624e-19)
(0.0682475 -4.02187e-05 9.64844e-20)
(0.0683478 -4.02581e-05 -2.12407e-19)
(0.0745575 -3.25302e-05 -7.03949e-24)
(0.0679789 -3.03932e-05 1.09775e-19)
(0.0681278 -3.09064e-05 -2.32093e-21)
(0.0681331 -3.13836e-05 -3.17262e-22)
(0.0681406 -3.18764e-05 1.14138e-19)
(0.0681483 -3.23849e-05 2.03156e-20)
(0.0682485 -3.2417e-05 1.19793e-19)
(0.0744475 -2.66024e-05 2.05675e-22)
(0.0678955 -2.62187e-05 1.51621e-22)
(0.0680337 -2.60382e-05 -3.46625e-22)
(0.0680378 -2.64556e-05 -3.38405e-22)
(0.0680438 -2.68714e-05 1.13949e-24)
(0.0680499 -2.73006e-05 2.56321e-23)
(0.06815 -2.73281e-05 -8.73176e-20)
(0.0743546 -2.47865e-05 2.33464e-19)
(0.0677976 -2.35631e-05 -4.90002e-21)
(0.0679435 -2.39617e-05 -2.19787e-19)
(0.067946 -2.43359e-05 -8.86343e-20)
(0.0679506 -2.47225e-05 1.13352e-19)
(0.0680506 -2.47479e-05 -6.26635e-23)
(0.0742666 -2.53184e-05 -8.4384e-20)
(0.0677066 -2.35893e-05 1.85255e-21)
(0.0678511 -2.39918e-05 -1.09335e-19)
(0.0678523 -2.43628e-05 1.11968e-19)
(0.0678554 -2.4746e-05 2.02687e-19)
(0.0679553 -2.47717e-05 1.61418e-23)
(0.0741612 -2.79646e-05 -1.13994e-19)
(0.067613 -2.64672e-05 2.39956e-21)
(0.0677557 -2.69088e-05 3.76251e-23)
(0.0677554 -2.7326e-05 2.01613e-19)
(0.067757 -2.77568e-05 2.20732e-19)
(0.0678567 -2.77856e-05 2.50268e-20)
(0.073964 -1.03501e-06 -2.19396e-21)
(0.0675257 -3.22273e-05 2.89985e-23)
(0.067661 -3.17795e-05 -2.63005e-25)
(0.0676593 -3.22803e-05 1.32905e-19)
(0.0676594 -3.27803e-05 -2.9029e-21)
(0.0676594 -3.32962e-05 3.87042e-23)
(0.0677591 -3.33317e-05 -1.14933e-19)
)
;

boundaryField
{
    inlet
    {
        type            calculated;
        value           nonuniform List<vector> 0();
    }
    outlet2
    {
        type            calculated;
        value           uniform (0 0 0);
    }
    outlet1
    {
        type            calculated;
        value           uniform (0 0 0);
    }
    wall
    {
        type            calculated;
        value           uniform (0 0 0);
    }
    symmetryBottom
    {
        type            symmetry;
    }
    symmetryZ0
    {
        type            symmetry;
    }
    symmetryZ05
    {
        type            symmetry;
    }
    procBoundary0to1
    {
        type            processor;
        value           uniform (0 0 0);
    }
}


// ************************************************************************* //
