/*--------------------------------*- C++ -*----------------------------------*\
| =========                 |                                                 |
| \\      /  F ield         | OpenFOAM: The Open Source CFD Toolbox           |
|  \\    /   O peration     | Version:  2412                                  |
|   \\  /    A nd           | Website:  www.openfoam.com                      |
|    \\/     M anipulation  |                                                 |
\*---------------------------------------------------------------------------*/
FoamFile
{
    version     2.0;
    format      ascii;
    arch        "LSB;label=32;scalar=64";
    class       volScalarField;
    location    "1.4e-06";
    object      T;
}
// * * * * * * * * * * * * * * * * * * * * * * * * * * * * * * * * * * * * * //

dimensions      [0 0 0 0 0 0 0];

internalField   nonuniform List<scalar> 
84
(
200.85
200.868
200.883
200.896
200.91
200.924
200.938
200.938
199.999
199.998
200
200
200
200
200
200
199.997
199.998
200
200
200
200
200
200
199.999
199.998
200
200
200
200
200
199.999
199.998
200
200
200
200
200
200.162
200.167
200.171
200.173
200.176
200.179
200.178
200.768
200.791
200.804
200.816
200.829
200.842
200.841
201.329
201.38
201.398
201.42
201.442
201.465
201.464
203.511
203.694
203.75
203.81
203.871
203.869
198.543
198.504
198.483
198.459
198.435
198.436
199.647
199.643
199.64
199.634
199.628
199.628
199.99
199.85
199.852
199.849
199.847
199.845
199.845
)
;

boundaryField
{
    inlet
    {
        type            calculated;
        value           nonuniform List<scalar> 0();
    }
    outlet2
    {
        type            calculated;
        value           uniform 0;
    }
    outlet1
    {
        type            calculated;
        value           uniform 0;
    }
    wall
    {
        type            calculated;
        value           uniform 0;
    }
    symmetryBottom
    {
        type            symmetry;
    }
    symmetryZ0
    {
        type            symmetry;
    }
    symmetryZ05
    {
        type            symmetry;
    }
    procBoundary0to1
    {
        type            processor;
        value           uniform 0;
    }
}


// ************************************************************************* //
