/*--------------------------------*- C++ -*----------------------------------*\
| =========                 |                                                 |
| \\      /  F ield         | OpenFOAM: The Open Source CFD Toolbox           |
|  \\    /   O peration     | Version:  2412                                  |
|   \\  /    A nd           | Website:  www.openfoam.com                      |
|    \\/     M anipulation  |                                                 |
\*---------------------------------------------------------------------------*/
FoamFile
{
    version     2.0;
    format      ascii;
    arch        "LSB;label=32;scalar=64";
    class       volScalarField;
    location    "5.1e-06";
    object      E;
}
// * * * * * * * * * * * * * * * * * * * * * * * * * * * * * * * * * * * * * //

dimensions      [0 0 0 0 0 0 0];

internalField   nonuniform List<scalar> 
84
(
99.4364
32.6471
45.2304
99.4594
32.6699
45.2513
99.4535
32.6669
45.2477
99.4535
32.6669
45.2477
99.4535
32.6669
45.2477
99.4535
32.6669
45.2477
99.4535
32.6669
45.2477
99.4535
32.6669
45.2477
99.4535
32.6669
45.2477
99.4535
32.6669
45.2477
99.4535
32.6669
45.2477
99.4537
32.6618
45.2447
73.9309
71.2029
71.7254
77.5528
74.5239
75.0796
77.1739
74.1763
74.7253
76.7966
73.8303
74.0457
71.0566
76.4205
73.4854
73.6936
74.0643
76.0465
73.1424
73.3434
73.7128
75.6812
72.807
73.001
73.3692
75.3239
72.4788
72.6661
73.0312
74.9966
72.1756
72.3569
72.3665
71.1904
74.5365
71.7602
71.9322
71.9356
72.3041
74.1879
71.4393
71.6047
71.6045
72.0604
73.8352
71.1151
71.2741
71.6353
)
;

boundaryField
{
    inlet
    {
        type            calculated;
        value           uniform 0;
    }
    outlet2
    {
        type            calculated;
        value           uniform 0;
    }
    outlet1
    {
        type            calculated;
        value           nonuniform List<scalar> 0();
    }
    wall
    {
        type            calculated;
        value           uniform 0;
    }
    symmetryBottom
    {
        type            symmetry;
    }
    symmetryZ0
    {
        type            symmetry;
    }
    symmetryZ05
    {
        type            symmetry;
    }
    procBoundary1to0
    {
        type            processor;
        value           uniform 0;
    }
}


// ************************************************************************* //
