/*--------------------------------*- C++ -*----------------------------------*\
| =========                 |                                                 |
| \\      /  F ield         | OpenFOAM: The Open Source CFD Toolbox           |
|  \\    /   O peration     | Version:  2412                                  |
|   \\  /    A nd           | Website:  www.openfoam.com                      |
|    \\/     M anipulation  |                                                 |
\*---------------------------------------------------------------------------*/
FoamFile
{
    version     2.0;
    format      ascii;
    arch        "LSB;label=32;scalar=64";
    class       volVectorField;
    location    "5.1e-06";
    object      rhoU;
}
// * * * * * * * * * * * * * * * * * * * * * * * * * * * * * * * * * * * * * //

dimensions      [0 0 0 0 0 0 0];

internalField   nonuniform List<vector> 
84
(
(0.0741092 -4.2317e-07 0)
(0.0245635 -5.88137e-07 0)
(0.033849 -4.85388e-07 -1.18666e-19)
(0.0741263 -0.000116948 0)
(0.0245806 -5.18108e-05 0)
(0.0338646 -6.55675e-05 -1.14759e-19)
(0.074122 -0.00011653 0)
(0.0245784 -5.16082e-05 0)
(0.033862 -6.53183e-05 1.55347e-19)
(0.074122 -0.00011653 0)
(0.0245784 -5.16082e-05 0)
(0.033862 -6.53183e-05 -2.03061e-19)
(0.074122 -0.00011653 0)
(0.0245784 -5.16082e-05 0)
(0.033862 -6.53183e-05 -3.12293e-19)
(0.074122 -0.00011653 0)
(0.0245784 -5.16082e-05 0)
(0.033862 -6.53183e-05 1.98284e-19)
(0.074122 -0.00011653 0)
(0.0245784 -5.16082e-05 0)
(0.033862 -6.53183e-05 -2.257e-19)
(0.074122 -0.00011653 0)
(0.0245784 -5.16082e-05 0)
(0.033862 -6.53183e-05 -2.60774e-19)
(0.074122 -0.00011653 0)
(0.0245784 -5.16082e-05 0)
(0.033862 -6.53183e-05 1.17081e-19)
(0.074122 -0.00011653 0)
(0.0245784 -5.16082e-05 0)
(0.033862 -6.53183e-05 -2.25752e-19)
(0.074122 -0.00011653 0)
(0.0245784 -5.16054e-05 0)
(0.033862 -6.53166e-05 -6.01998e-19)
(0.0741221 -0.000116545 0)
(0.0245746 -5.12345e-05 0)
(0.0338597 -6.50958e-05 0)
(0.0551895 0.000112776 1.10779e-20)
(0.053175 0.000103446 1.21168e-19)
(0.0535614 0.000104469 1.248e-20)
(0.0578715 -0.00011427 1.06691e-20)
(0.0556353 -0.000111614 1.31673e-19)
(0.0560461 -0.000112257 -3.04773e-21)
(0.0575904 -0.000113756 -1.51524e-20)
(0.0553773 -0.000111119 -6.13525e-20)
(0.0557832 -0.000111655 -2.26757e-19)
(0.0573105 -0.00011323 1.94379e-20)
(0.0551205 -0.000110627 -3.1218e-21)
(0.0552789 -0.000112495 1.95714e-22)
(0.0530611 6.93222e-06 1.96064e-19)
(0.0570315 -0.000112734 -3.31302e-20)
(0.0548645 -0.000110162 8.01833e-22)
(0.0550175 -0.000112015 -1.99984e-21)
(0.0552926 -0.000112419 2.07308e-19)
(0.0567521 -0.000107555 -1.91196e-20)
(0.0546081 -0.000105434 -1.26092e-19)
(0.0547558 -0.000107206 6.96136e-21)
(0.05503 -0.000107595 1.37747e-19)
(0.0564716 -8.4937e-05 2.29584e-20)
(0.0543507 -8.46231e-05 -2.04949e-21)
(0.0544931 -8.59554e-05 -1.91339e-22)
(0.0547663 -8.62712e-05 -1.08459e-21)
(0.0561968 -7.09038e-05 2.83328e-20)
(0.0540983 -7.16933e-05 -1.28752e-19)
(0.0542355 -7.27665e-05 1.39577e-19)
(0.0545064 -7.29601e-05 1.82233e-21)
(0.0559103 -6.23532e-05 -1.07255e-20)
(0.0538346 -6.38031e-05 -1.92426e-19)
(0.0539663 -6.46909e-05 -1.78426e-19)
(0.0539726 -6.56414e-05 2.11373e-19)
(0.0531666 7.32246e-06 1.13883e-18)
(0.0556617 -6.09525e-05 2.42248e-20)
(0.0536087 -6.25025e-05 -1.86904e-19)
(0.0537356 -6.33325e-05 1.34462e-19)
(0.0537386 -6.42356e-05 2.63221e-19)
(0.054013 -6.48528e-05 1.67599e-19)
(0.0553825 -6.96682e-05 5.96254e-20)
(0.053352 -7.04758e-05 -3.29352e-21)
(0.0534737 -7.14784e-05 3.67842e-22)
(0.0534736 -7.2577e-05 -3.07673e-22)
(0.0538117 -7.75961e-05 -2.01828e-19)
(0.0551165 -8.45274e-05 1.38538e-22)
(0.0531074 -8.40571e-05 1.83026e-19)
(0.0532242 -8.53314e-05 -1.52573e-20)
(0.0534923 -8.56115e-05 -2.64236e-19)
)
;

boundaryField
{
    inlet
    {
        type            calculated;
        value           uniform (0 0 0);
    }
    outlet2
    {
        type            calculated;
        value           uniform (0 0 0);
    }
    outlet1
    {
        type            calculated;
        value           nonuniform List<vector> 0();
    }
    wall
    {
        type            calculated;
        value           uniform (0 0 0);
    }
    symmetryBottom
    {
        type            symmetry;
    }
    symmetryZ0
    {
        type            symmetry;
    }
    symmetryZ05
    {
        type            symmetry;
    }
    procBoundary1to0
    {
        type            processor;
        value           uniform (0 0 0);
    }
}


// ************************************************************************* //
