/*--------------------------------*- C++ -*----------------------------------*\
| =========                 |                                                 |
| \\      /  F ield         | OpenFOAM: The Open Source CFD Toolbox           |
|  \\    /   O peration     | Version:  2412                                  |
|   \\  /    A nd           | Website:  www.openfoam.com                      |
|    \\/     M anipulation  |                                                 |
\*---------------------------------------------------------------------------*/
FoamFile
{
    version     2.0;
    format      ascii;
    arch        "LSB;label=32;scalar=64";
    class       volScalarField;
    location    "5.1e-06";
    object      T;
}
// * * * * * * * * * * * * * * * * * * * * * * * * * * * * * * * * * * * * * //

dimensions      [0 0 0 0 0 0 0];

internalField   nonuniform List<scalar> 
84
(
200.008
199.236
200.121
199.98
199.166
200.069
199.973
199.156
200.06
199.973
199.156
200.06
199.973
199.156
200.06
199.973
199.156
200.06
199.973
199.156
200.06
199.973
199.156
200.06
199.973
199.156
200.06
199.973
199.156
200.06
199.973
199.156
200.06
199.973
199.137
200.052
203.196
203.028
203.041
200.019
199.993
199.999
200.019
199.993
199.999
200.019
199.993
199.999
200.019
200.023
199.996
200.002
200.002
200.53
200.477
200.489
200.488
202.856
202.697
202.751
202.747
205.049
204.788
204.881
204.874
214.186
213.419
213.693
213.907
198.902
194.614
194.807
194.719
194.64
194.446
198.725
198.757
198.739
198.721
198.801
199.477
199.475
199.471
199.471
)
;

boundaryField
{
    inlet
    {
        type            calculated;
        value           uniform 0;
    }
    outlet2
    {
        type            calculated;
        value           uniform 0;
    }
    outlet1
    {
        type            calculated;
        value           nonuniform List<scalar> 0();
    }
    wall
    {
        type            calculated;
        value           uniform 0;
    }
    symmetryBottom
    {
        type            symmetry;
    }
    symmetryZ0
    {
        type            symmetry;
    }
    symmetryZ05
    {
        type            symmetry;
    }
    procBoundary1to0
    {
        type            processor;
        value           uniform 0;
    }
}


// ************************************************************************* //
