/*--------------------------------*- C++ -*----------------------------------*\
| =========                 |                                                 |
| \\      /  F ield         | OpenFOAM: The Open Source CFD Toolbox           |
|  \\    /   O peration     | Version:  2412                                  |
|   \\  /    A nd           | Website:  www.openfoam.com                      |
|    \\/     M anipulation  |                                                 |
\*---------------------------------------------------------------------------*/
FoamFile
{
    version     2.0;
    format      ascii;
    arch        "LSB;label=32;scalar=64";
    class       volScalarField;
    location    "4.5e-06";
    object      rho;
}
// * * * * * * * * * * * * * * * * * * * * * * * * * * * * * * * * * * * * * //

dimensions      [0 0 0 0 0 0 0];

internalField   nonuniform List<scalar> 
84
(
2.77532e-05
2.0557e-05
2.10793e-05
2.10553e-05
2.10571e-05
2.10579e-05
2.10588e-05
2.11631e-05
2.88988e-05
2.14248e-05
2.19808e-05
2.19696e-05
2.19855e-05
2.2001e-05
2.20169e-05
2.21247e-05
2.87029e-05
2.14033e-05
2.18794e-05
2.18735e-05
2.18875e-05
2.19014e-05
2.19157e-05
2.20231e-05
2.86116e-05
2.12554e-05
2.18026e-05
2.17891e-05
2.18023e-05
2.18149e-05
2.1922e-05
2.8554e-05
2.11601e-05
2.17069e-05
2.16918e-05
2.17034e-05
2.17145e-05
2.18212e-05
2.84327e-05
2.1068e-05
2.16111e-05
2.15946e-05
2.16046e-05
2.16141e-05
2.17204e-05
2.83112e-05
2.09764e-05
2.15155e-05
2.14976e-05
2.15061e-05
2.1514e-05
2.16199e-05
2.81513e-05
2.09248e-05
2.14178e-05
2.14022e-05
2.1409e-05
2.14153e-05
2.15209e-05
2.80393e-05
2.07974e-05
2.13277e-05
2.13072e-05
2.13127e-05
2.14179e-05
2.79623e-05
2.07103e-05
2.12394e-05
2.12176e-05
2.12218e-05
2.13267e-05
2.78193e-05
2.06184e-05
2.11418e-05
2.11186e-05
2.11211e-05
2.12257e-05
2.75887e-05
2.05492e-05
2.10466e-05
2.10238e-05
2.10247e-05
2.10249e-05
2.11291e-05
)
;

boundaryField
{
    inlet
    {
        type            calculated;
        value           nonuniform List<scalar> 0();
    }
    outlet2
    {
        type            calculated;
        value           uniform 0;
    }
    outlet1
    {
        type            calculated;
        value           uniform 0;
    }
    wall
    {
        type            calculated;
        value           uniform 0;
    }
    symmetryBottom
    {
        type            symmetry;
    }
    symmetryZ0
    {
        type            symmetry;
    }
    symmetryZ05
    {
        type            symmetry;
    }
    procBoundary0to1
    {
        type            processor;
        value           uniform 0;
    }
}


// ************************************************************************* //
