/*--------------------------------*- C++ -*----------------------------------*\
| =========                 |                                                 |
| \\      /  F ield         | OpenFOAM: The Open Source CFD Toolbox           |
|  \\    /   O peration     | Version:  2412                                  |
|   \\  /    A nd           | Website:  www.openfoam.com                      |
|    \\/     M anipulation  |                                                 |
\*---------------------------------------------------------------------------*/
FoamFile
{
    version     2.0;
    format      ascii;
    arch        "LSB;label=32;scalar=64";
    class       volVectorField;
    location    "4.5e-06";
    object      U;
}
// * * * * * * * * * * * * * * * * * * * * * * * * * * * * * * * * * * * * * //

dimensions      [0 0 0 0 0 0 0];

internalField   nonuniform List<vector> 
84
(
(2635.06 4.6596 4.65254e-15)
(2630.08 4.74647 -6.3191e-15)
(2630.93 4.81191 -1.21183e-14)
(2630.86 4.88257 6.74807e-15)
(2630.85 4.95512 -6.33654e-16)
(2630.84 5.02986 8.13534e-16)
(2630.82 5.10689 1.15e-14)
(2630.91 5.10092 1.93373e-15)
(2636.57 -4.73419 4.60974e-15)
(2631.66 -4.87674 -6.04205e-15)
(2632.53 -4.93295 -1.4351e-14)
(2632.48 -5.00836 1.31995e-15)
(2632.49 -5.08482 -2.69038e-14)
(2632.5 -5.1637 5.22365e-15)
(2632.51 -5.24507 2.14922e-14)
(2632.6 -5.23801 4.29072e-15)
(2636.43 -4.39061 -1.94902e-14)
(2631.71 -5.27817 4.65108e-15)
(2632.44 -4.89875 8.20197e-15)
(2632.41 -5.01111 -6.99667e-16)
(2632.42 -5.08575 -3.00539e-16)
(2632.43 -5.16473 1.08879e-14)
(2632.44 -5.24613 -9.55059e-15)
(2632.52 -5.23907 -1.05292e-14)
(2636.38 -4.53786 -1.89978e-14)
(2631.54 -4.96335 1.2011e-14)
(2632.4 -5.009 -9.76706e-16)
(2632.35 -5.08688 -2.42704e-14)
(2632.36 -5.16577 2.34095e-14)
(2632.37 -5.24721 4.41522e-15)
(2632.45 -5.24014 -9.45096e-15)
(2636.38 -4.81122 -1.1555e-14)
(2631.46 -4.94798 -4.45012e-15)
(2632.33 -5.01171 3.5618e-16)
(2632.28 -5.08905 1.0915e-16)
(2632.29 -5.16803 -8.75429e-15)
(2632.29 -5.24954 6.69628e-15)
(2632.38 -5.24247 1.51952e-14)
(2636.29 -4.62599 -7.04592e-15)
(2631.37 -4.75121 1.33178e-14)
(2632.23 -4.8146 -1.03212e-15)
(2632.18 -4.88999 1.57081e-14)
(2632.19 -4.96711 -1.41555e-14)
(2632.2 -5.04673 1.21653e-14)
(2632.28 -5.03997 -2.61717e-14)
(2636.15 -3.72706 -2.08565e-18)
(2631.2 -3.83024 1.29152e-14)
(2632.06 -3.87886 -1.01387e-15)
(2632.01 -3.93976 3.3546e-18)
(2632.01 -4.00181 1.31024e-14)
(2632.02 -4.06589 1.78956e-15)
(2632.1 -4.06049 1.3032e-14)
(2636.03 -2.86643 1.29746e-16)
(2631.13 -3.58371 1.2361e-16)
(2631.94 -3.2677 -5.67101e-17)
(2631.89 -3.35039 -1.33038e-16)
(2631.89 -3.40213 -2.77145e-17)
(2631.89 -3.4572 5.59099e-17)
(2631.98 -3.45261 -1.13347e-14)
(2635.92 -2.72001 2.49618e-14)
(2630.92 -2.96436 -2.43852e-15)
(2631.79 -2.99503 -2.74297e-14)
(2631.73 -3.04246 -9.73186e-15)
(2631.74 -3.09073 1.48321e-14)
(2631.82 -3.08675 -1.0458e-15)
(2635.97 -2.84311 -8.9587e-15)
(2631.09 -2.90997 8.76548e-16)
(2631.94 -2.94944 -1.27737e-14)
(2631.89 -2.99449 1.38904e-14)
(2631.89 -3.04065 2.34873e-14)
(2631.98 -3.03687 -2.00274e-15)
(2635.93 -3.0521 -1.26059e-14)
(2631.02 -3.31813 1.19061e-15)
(2631.87 -3.3413 -3.07518e-17)
(2631.81 -3.39416 2.44623e-14)
(2631.82 -3.44718 2.54913e-14)
(2631.9 -3.44283 1.16664e-15)
(2635.85 -0.350246 -7.43714e-16)
(2630.98 -4.34754 4.88285e-17)
(2631.82 -3.92288 -1.65885e-18)
(2631.77 -4.01068 1.52102e-14)
(2631.77 -4.07115 -1.22196e-15)
(2631.77 -4.13475 6.03477e-17)
(2631.85 -4.12965 -1.29873e-14)
)
;

boundaryField
{
    inlet
    {
        type            calculated;
        value           nonuniform List<vector> 0();
    }
    outlet2
    {
        type            calculated;
        value           uniform (0 0 0);
    }
    outlet1
    {
        type            calculated;
        value           uniform (0 0 0);
    }
    wall
    {
        type            calculated;
        value           uniform (0 0 0);
    }
    symmetryBottom
    {
        type            symmetry;
    }
    symmetryZ0
    {
        type            symmetry;
    }
    symmetryZ05
    {
        type            symmetry;
    }
    procBoundary0to1
    {
        type            processor;
        value           uniform (0 0 0);
    }
}


// ************************************************************************* //
