/*--------------------------------*- C++ -*----------------------------------*\
| =========                 |                                                 |
| \\      /  F ield         | OpenFOAM: The Open Source CFD Toolbox           |
|  \\    /   O peration     | Version:  2412                                  |
|   \\  /    A nd           | Website:  www.openfoam.com                      |
|    \\/     M anipulation  |                                                 |
\*---------------------------------------------------------------------------*/
FoamFile
{
    version     2.0;
    format      ascii;
    arch        "LSB;label=32;scalar=64";
    class       volScalarField;
    location    "3.4e-06";
    object      E;
}
// * * * * * * * * * * * * * * * * * * * * * * * * * * * * * * * * * * * * * //

dimensions      [0 0 0 0 0 0 0];

internalField   nonuniform List<scalar> 
84
(
99.4333
51.933
57.9867
99.4444
51.9491
58.0011
99.4415
51.9472
57.9991
99.4415
51.9472
57.9991
99.4415
51.9472
57.9991
99.4415
51.9472
57.9991
99.4415
51.9472
57.9991
99.4415
51.9472
57.9991
99.4415
51.9472
57.9991
99.4415
51.9472
57.9991
99.4415
51.9472
57.9991
99.4417
51.9434
57.9963
81.0004
79.6265
79.9407
83.5988
82.1023
82.4285
83.3301
81.8461
82.1697
83.0622
81.5908
81.6761
79.5237
82.7948
81.336
81.4169
81.6867
82.5292
81.0828
81.1594
81.4286
82.2696
80.8352
80.9077
81.1762
82.0142
80.5915
80.6599
80.927
81.7827
80.3696
80.4343
80.445
79.587
81.4474
80.0532
80.1124
80.1184
80.3865
81.2003
79.8171
79.8724
79.8754
80.1836
80.9453
79.5737
79.625
79.8901
)
;

boundaryField
{
    inlet
    {
        type            calculated;
        value           uniform 0;
    }
    outlet2
    {
        type            calculated;
        value           uniform 0;
    }
    outlet1
    {
        type            calculated;
        value           nonuniform List<scalar> 0();
    }
    wall
    {
        type            calculated;
        value           uniform 0;
    }
    symmetryBottom
    {
        type            symmetry;
    }
    symmetryZ0
    {
        type            symmetry;
    }
    symmetryZ05
    {
        type            symmetry;
    }
    procBoundary1to0
    {
        type            processor;
        value           uniform 0;
    }
}


// ************************************************************************* //
