/*--------------------------------*- C++ -*----------------------------------*\
| =========                 |                                                 |
| \\      /  F ield         | OpenFOAM: The Open Source CFD Toolbox           |
|  \\    /   O peration     | Version:  2412                                  |
|   \\  /    A nd           | Website:  www.openfoam.com                      |
|    \\/     M anipulation  |                                                 |
\*---------------------------------------------------------------------------*/
FoamFile
{
    version     2.0;
    format      ascii;
    arch        "LSB;label=32;scalar=64";
    class       volScalarField;
    location    "3.4e-06";
    object      rho;
}
// * * * * * * * * * * * * * * * * * * * * * * * * * * * * * * * * * * * * * //

dimensions      [0 0 0 0 0 0 0];

internalField   nonuniform List<scalar> 
84
(
2.81093e-05
1.4818e-05
1.64933e-05
2.81124e-05
1.48226e-05
1.64974e-05
2.81116e-05
1.48221e-05
1.64968e-05
2.81116e-05
1.48221e-05
1.64968e-05
2.81116e-05
1.48221e-05
1.64968e-05
2.81116e-05
1.48221e-05
1.64968e-05
2.81116e-05
1.48221e-05
1.64968e-05
2.81116e-05
1.48221e-05
1.64968e-05
2.81116e-05
1.48221e-05
1.64968e-05
2.81116e-05
1.48221e-05
1.64968e-05
2.81116e-05
1.48221e-05
1.64968e-05
2.81116e-05
1.4821e-05
1.6496e-05
2.29565e-05
2.25757e-05
2.26634e-05
2.36765e-05
2.32621e-05
2.33531e-05
2.36013e-05
2.31904e-05
2.32806e-05
2.35263e-05
2.31189e-05
2.31424e-05
2.254e-05
2.34515e-05
2.30476e-05
2.30699e-05
2.31454e-05
2.33767e-05
2.29763e-05
2.29974e-05
2.30727e-05
2.33021e-05
2.29051e-05
2.2925e-05
2.30002e-05
2.32282e-05
2.28347e-05
2.28534e-05
2.29282e-05
2.31524e-05
2.27624e-05
2.27799e-05
2.27827e-05
2.25591e-05
2.30824e-05
2.26956e-05
2.2712e-05
2.27138e-05
2.2789e-05
2.30075e-05
2.26242e-05
2.26394e-05
2.26403e-05
2.27266e-05
2.29348e-05
2.25548e-05
2.25689e-05
2.26431e-05
)
;

boundaryField
{
    inlet
    {
        type            calculated;
        value           uniform 0;
    }
    outlet2
    {
        type            calculated;
        value           uniform 0;
    }
    outlet1
    {
        type            calculated;
        value           nonuniform List<scalar> 0();
    }
    wall
    {
        type            calculated;
        value           uniform 0;
    }
    symmetryBottom
    {
        type            symmetry;
    }
    symmetryZ0
    {
        type            symmetry;
    }
    symmetryZ05
    {
        type            symmetry;
    }
    procBoundary1to0
    {
        type            processor;
        value           uniform 0;
    }
}


// ************************************************************************* //
