/*--------------------------------*- C++ -*----------------------------------*\
| =========                 |                                                 |
| \\      /  F ield         | OpenFOAM: The Open Source CFD Toolbox           |
|  \\    /   O peration     | Version:  2412                                  |
|   \\  /    A nd           | Website:  www.openfoam.com                      |
|    \\/     M anipulation  |                                                 |
\*---------------------------------------------------------------------------*/
FoamFile
{
    version     2.0;
    format      ascii;
    arch        "LSB;label=32;scalar=64";
    class       volScalarField;
    location    "4.1e-06";
    object      E;
}
// * * * * * * * * * * * * * * * * * * * * * * * * * * * * * * * * * * * * * //

dimensions      [0 0 0 0 0 0 0];

internalField   nonuniform List<scalar> 
84
(
99.4345
43.6704
52.1984
99.45
43.6897
52.2156
99.4461
43.6873
52.213
99.4461
43.6873
52.213
99.4461
43.6873
52.213
99.4461
43.6873
52.213
99.4461
43.6873
52.213
99.4461
43.6873
52.213
99.4461
43.6873
52.213
99.4461
43.6873
52.213
99.4461
43.6873
52.2129
99.4463
43.6829
52.21
77.952
76.0516
76.4453
80.9912
78.9034
79.3162
80.6755
78.607
79.0157
80.3607
78.3117
78.4411
75.9271
80.0468
78.0171
78.1411
78.4553
79.7348
77.7242
77.8429
78.1562
79.43
77.4378
77.5513
77.8638
79.1308
77.1567
77.2651
77.5755
78.8585
76.8991
77.003
77.014
76.0171
78.4689
76.5378
76.6348
76.6405
76.9523
78.1784
76.2644
76.3564
76.3588
76.7284
77.8811
75.9848
76.072
76.3796
)
;

boundaryField
{
    inlet
    {
        type            calculated;
        value           uniform 0;
    }
    outlet2
    {
        type            calculated;
        value           uniform 0;
    }
    outlet1
    {
        type            calculated;
        value           nonuniform List<scalar> 0();
    }
    wall
    {
        type            calculated;
        value           uniform 0;
    }
    symmetryBottom
    {
        type            symmetry;
    }
    symmetryZ0
    {
        type            symmetry;
    }
    symmetryZ05
    {
        type            symmetry;
    }
    procBoundary1to0
    {
        type            processor;
        value           uniform 0;
    }
}


// ************************************************************************* //
