/*--------------------------------*- C++ -*----------------------------------*\
| =========                 |                                                 |
| \\      /  F ield         | OpenFOAM: The Open Source CFD Toolbox           |
|  \\    /   O peration     | Version:  2412                                  |
|   \\  /    A nd           | Website:  www.openfoam.com                      |
|    \\/     M anipulation  |                                                 |
\*---------------------------------------------------------------------------*/
FoamFile
{
    version     2.0;
    format      ascii;
    arch        "LSB;label=32;scalar=64";
    class       volVectorField;
    location    "4.1e-06";
    object      rhoU;
}
// * * * * * * * * * * * * * * * * * * * * * * * * * * * * * * * * * * * * * //

dimensions      [0 0 0 0 0 0 0];

internalField   nonuniform List<vector> 
84
(
(0.0741078 -2.83779e-07 0)
(0.0327491 -4.9576e-07 0)
(0.0390403 -4.1331e-07 -1.08514e-19)
(0.0741194 -9.77862e-05 0)
(0.0327635 -5.36009e-05 0)
(0.0390532 -6.10815e-05 -1.04608e-19)
(0.0741164 -9.75001e-05 0)
(0.0327617 -5.34338e-05 0)
(0.0390512 -6.08938e-05 1.41296e-19)
(0.0741164 -9.75001e-05 0)
(0.0327617 -5.34337e-05 0)
(0.0390512 -6.08938e-05 -1.81947e-19)
(0.0741164 -9.75001e-05 0)
(0.0327617 -5.34337e-05 0)
(0.0390512 -6.08938e-05 -2.94325e-19)
(0.0741164 -9.75001e-05 0)
(0.0327617 -5.34337e-05 0)
(0.0390512 -6.08938e-05 1.77987e-19)
(0.0741164 -9.75001e-05 0)
(0.0327617 -5.34337e-05 0)
(0.0390512 -6.08938e-05 -2.202e-19)
(0.0741164 -9.75001e-05 0)
(0.0327617 -5.34337e-05 0)
(0.0390512 -6.08938e-05 -2.52173e-19)
(0.0741164 -9.75001e-05 0)
(0.0327617 -5.34337e-05 0)
(0.0390512 -6.08938e-05 1.04596e-19)
(0.0741164 -9.75001e-05 0)
(0.0327617 -5.34337e-05 0)
(0.0390512 -6.08938e-05 -2.17888e-19)
(0.0741164 -9.75002e-05 0)
(0.0327617 -5.34318e-05 0)
(0.0390512 -6.08925e-05 -5.51208e-19)
(0.0741166 -9.75132e-05 0)
(0.0327585 -5.31128e-05 0)
(0.039049 -6.06764e-05 0)
(0.0581755 9.53027e-05 7.6764e-21)
(0.0567728 8.9451e-05 1.02676e-19)
(0.0570642 9.00445e-05 1.03654e-20)
(0.0604255 -9.59152e-05 7.39378e-21)
(0.0588849 -9.49301e-05 1.09298e-19)
(0.0591902 -9.53019e-05 -2.04139e-21)
(0.0601913 -9.55735e-05 -1.07208e-20)
(0.0586649 -9.45942e-05 -5.15183e-20)
(0.0589673 -9.48964e-05 -2.12679e-19)
(0.0599579 -9.52239e-05 1.37625e-20)
(0.0584457 -9.42599e-05 -2.29893e-21)
(0.058541 -9.57414e-05 1.19908e-22)
(0.0566762 4.64854e-06 1.64284e-19)
(0.0597251 -9.48941e-05 -3.22873e-20)
(0.0582271 -9.3944e-05 4.81388e-22)
(0.0583184 -9.54153e-05 -1.67375e-21)
(0.0585515 -9.56882e-05 1.69078e-19)
(0.0594919 -9.03729e-05 -1.3523e-20)
(0.0580082 -8.97133e-05 -1.06417e-19)
(0.0580955 -9.11193e-05 4.06951e-21)
(0.0583279 -9.13816e-05 1.12144e-19)
(0.059258 -7.1618e-05 1.63918e-20)
(0.0577885 -7.20665e-05 -1.20072e-21)
(0.0578718 -7.31456e-05 -3.33371e-22)
(0.0581036 -7.33584e-05 -8.96002e-22)
(0.0590279 -5.98245e-05 2.05661e-20)
(0.0575724 -6.09619e-05 -1.06489e-19)
(0.0576517 -6.18438e-05 1.14402e-19)
(0.057882 -6.19748e-05 1.31454e-21)
(0.0587904 -5.29929e-05 -7.47434e-21)
(0.0573488 -5.45177e-05 -1.60091e-19)
(0.057424 -5.52676e-05 -1.52164e-19)
(0.0574315 -5.60767e-05 1.82029e-19)
(0.0567471 4.92541e-06 9.89922e-19)
(0.058578 -5.21778e-05 1.75157e-20)
(0.0571508 -5.37395e-05 -1.60138e-19)
(0.0572225 -5.44545e-05 1.1412e-19)
(0.0572271 -5.52329e-05 2.40095e-19)
(0.057459 -5.56399e-05 1.45927e-19)
(0.0583453 -5.93943e-05 4.23952e-20)
(0.0569321 -6.05025e-05 -1.81874e-21)
(0.0569998 -6.13446e-05 2.5838e-22)
(0.0570016 -6.22745e-05 -1.94829e-22)
(0.0572757 -6.56257e-05 -1.65499e-19)
(0.0581212 -7.19785e-05 1.17033e-22)
(0.0567213 -7.22814e-05 1.55648e-19)
(0.0567853 -7.33303e-05 -1.0191e-20)
(0.0570135 -7.35212e-05 -2.40244e-19)
)
;

boundaryField
{
    inlet
    {
        type            calculated;
        value           uniform (0 0 0);
    }
    outlet2
    {
        type            calculated;
        value           uniform (0 0 0);
    }
    outlet1
    {
        type            calculated;
        value           nonuniform List<vector> 0();
    }
    wall
    {
        type            calculated;
        value           uniform (0 0 0);
    }
    symmetryBottom
    {
        type            symmetry;
    }
    symmetryZ0
    {
        type            symmetry;
    }
    symmetryZ05
    {
        type            symmetry;
    }
    procBoundary1to0
    {
        type            processor;
        value           uniform (0 0 0);
    }
}


// ************************************************************************* //
