/*--------------------------------*- C++ -*----------------------------------*\
| =========                 |                                                 |
| \\      /  F ield         | OpenFOAM: The Open Source CFD Toolbox           |
|  \\    /   O peration     | Version:  2412                                  |
|   \\  /    A nd           | Website:  www.openfoam.com                      |
|    \\/     M anipulation  |                                                 |
\*---------------------------------------------------------------------------*/
FoamFile
{
    version     2.0;
    format      ascii;
    arch        "LSB;label=32;scalar=64";
    class       volScalarField;
    location    "6.4e-06";
    object      E;
}
// * * * * * * * * * * * * * * * * * * * * * * * * * * * * * * * * * * * * * //

dimensions      [0 0 0 0 0 0 0];

internalField   nonuniform List<scalar> 
84
(
99.4392
19.5824
38.1807
99.4732
19.6077
38.2055
99.4646
19.6045
38.2008
99.4646
19.6045
38.2008
99.4646
19.6045
38.2008
99.4646
19.6045
38.2008
99.4646
19.6045
38.2008
99.4646
19.6045
38.2008
99.4646
19.6045
38.2008
99.4646
19.6045
38.2008
99.4646
19.6045
38.2008
99.4648
19.5986
38.198
69.2008
65.3207
66.0404
73.5047
69.1417
69.9212
73.0506
68.7383
69.5065
72.5986
68.3371
68.7075
65.1671
72.1486
67.9376
68.2978
68.729
71.7007
67.54
67.8899
68.3193
71.2635
67.1512
67.4912
67.9189
70.8378
66.7724
67.103
67.5262
70.4449
66.4185
66.7409
66.7439
65.3664
69.9046
65.9487
66.2577
66.2538
66.6867
69.4863
65.5757
65.8754
65.8676
66.4332
69.0697
65.2046
65.4954
65.9131
)
;

boundaryField
{
    inlet
    {
        type            calculated;
        value           uniform 0;
    }
    outlet2
    {
        type            calculated;
        value           uniform 0;
    }
    outlet1
    {
        type            calculated;
        value           nonuniform List<scalar> 0();
    }
    wall
    {
        type            calculated;
        value           uniform 0;
    }
    symmetryBottom
    {
        type            symmetry;
    }
    symmetryZ0
    {
        type            symmetry;
    }
    symmetryZ05
    {
        type            symmetry;
    }
    procBoundary1to0
    {
        type            processor;
        value           uniform 0;
    }
}


// ************************************************************************* //
