/*--------------------------------*- C++ -*----------------------------------*\
| =========                 |                                                 |
| \\      /  F ield         | OpenFOAM: The Open Source CFD Toolbox           |
|  \\    /   O peration     | Version:  2412                                  |
|   \\  /    A nd           | Website:  www.openfoam.com                      |
|    \\/     M anipulation  |                                                 |
\*---------------------------------------------------------------------------*/
FoamFile
{
    version     2.0;
    format      ascii;
    arch        "LSB;label=32;scalar=64";
    class       volScalarField;
    location    "6.4e-06";
    object      rho;
}
// * * * * * * * * * * * * * * * * * * * * * * * * * * * * * * * * * * * * * //

dimensions      [0 0 0 0 0 0 0];

internalField   nonuniform List<scalar> 
84
(
2.81109e-05
5.73897e-06
1.08946e-05
2.81205e-05
5.74626e-06
1.09017e-05
2.81181e-05
5.74534e-06
1.09004e-05
2.81181e-05
5.74534e-06
1.09004e-05
2.81181e-05
5.74534e-06
1.09004e-05
2.81181e-05
5.74534e-06
1.09004e-05
2.81181e-05
5.74534e-06
1.09004e-05
2.81181e-05
5.74534e-06
1.09004e-05
2.81181e-05
5.74534e-06
1.09004e-05
2.81181e-05
5.74534e-06
1.09004e-05
2.81181e-05
5.74532e-06
1.09004e-05
2.81182e-05
5.74366e-06
1.08996e-05
1.96482e-05
1.85695e-05
1.87696e-05
2.08423e-05
1.96311e-05
1.98475e-05
2.07151e-05
1.95178e-05
1.97312e-05
2.05885e-05
1.94053e-05
1.95072e-05
1.85147e-05
2.04624e-05
1.92931e-05
1.93922e-05
1.95132e-05
2.03363e-05
1.91811e-05
1.92772e-05
1.93978e-05
2.02105e-05
1.90694e-05
1.91627e-05
1.92827e-05
2.00872e-05
1.89598e-05
1.90504e-05
1.91691e-05
1.99572e-05
1.88443e-05
1.89319e-05
1.89325e-05
1.85747e-05
1.98467e-05
1.87457e-05
1.88309e-05
1.88301e-05
1.89521e-05
1.97201e-05
1.86332e-05
1.87156e-05
1.87136e-05
1.88721e-05
1.96011e-05
1.85271e-05
1.86069e-05
1.87242e-05
)
;

boundaryField
{
    inlet
    {
        type            calculated;
        value           uniform 0;
    }
    outlet2
    {
        type            calculated;
        value           uniform 0;
    }
    outlet1
    {
        type            calculated;
        value           nonuniform List<scalar> 0();
    }
    wall
    {
        type            calculated;
        value           uniform 0;
    }
    symmetryBottom
    {
        type            symmetry;
    }
    symmetryZ0
    {
        type            symmetry;
    }
    symmetryZ05
    {
        type            symmetry;
    }
    procBoundary1to0
    {
        type            processor;
        value           uniform 0;
    }
}


// ************************************************************************* //
