/*--------------------------------*- C++ -*----------------------------------*\
| =========                 |                                                 |
| \\      /  F ield         | OpenFOAM: The Open Source CFD Toolbox           |
|  \\    /   O peration     | Version:  2412                                  |
|   \\  /    A nd           | Website:  www.openfoam.com                      |
|    \\/     M anipulation  |                                                 |
\*---------------------------------------------------------------------------*/
FoamFile
{
    version     2.0;
    format      ascii;
    arch        "LSB;label=32;scalar=64";
    class       volVectorField;
    location    "6.4e-06";
    object      rhoU;
}
// * * * * * * * * * * * * * * * * * * * * * * * * * * * * * * * * * * * * * //

dimensions      [0 0 0 0 0 0 0];

internalField   nonuniform List<vector> 
84
(
(0.0741113 -6.31007e-07 0)
(0.0148572 -6.6466e-07 0)
(0.0285861 -5.57774e-07 -1.19454e-19)
(0.0741366 -0.000139573 0)
(0.0148762 -4.33968e-05 0)
(0.0286047 -6.88636e-05 -1.17104e-19)
(0.0741302 -0.000138961 0)
(0.0148738 -4.31791e-05 0)
(0.0286012 -6.85387e-05 1.60029e-19)
(0.0741302 -0.000138961 0)
(0.0148738 -4.31791e-05 0)
(0.0286012 -6.85387e-05 -2.13268e-19)
(0.0741302 -0.000138961 0)
(0.0148738 -4.31791e-05 0)
(0.0286012 -6.85387e-05 -3.2324e-19)
(0.0741302 -0.000138961 0)
(0.0148738 -4.31791e-05 0)
(0.0286012 -6.85387e-05 2.09215e-19)
(0.0741302 -0.000138961 0)
(0.0148738 -4.31791e-05 0)
(0.0286012 -6.85387e-05 -2.35904e-19)
(0.0741302 -0.000138961 0)
(0.0148738 -4.31791e-05 0)
(0.0286012 -6.85387e-05 -2.68601e-19)
(0.0741302 -0.000138961 0)
(0.0148738 -4.31791e-05 0)
(0.0286012 -6.85387e-05 1.19414e-19)
(0.0741302 -0.000138961 0)
(0.0148738 -4.31791e-05 0)
(0.0286012 -6.85387e-05 -2.35211e-19)
(0.0741302 -0.000138961 0)
(0.0148738 -4.31749e-05 0)
(0.0286012 -6.85366e-05 -6.34081e-19)
(0.0741304 -0.000138979 0)
(0.0148694 -4.27492e-05 0)
(0.0285991 -6.83285e-05 0)
(0.0516759 0.000132774 1.56674e-20)
(0.0488086 0.000117951 1.44044e-19)
(0.0493406 0.000119767 1.50153e-20)
(0.0548637 -0.000135961 1.50929e-20)
(0.0516407 -0.000130083 1.58367e-19)
(0.0522165 -0.000131255 -4.46234e-21)
(0.0545267 -0.000135185 -2.1102e-20)
(0.0513411 -0.000129355 -7.51833e-20)
(0.0519087 -0.00013036 -2.43848e-19)
(0.0541914 -0.000134387 2.73251e-20)
(0.0510432 -0.000128632 -4.40863e-21)
(0.0513156 -0.000131107 3.3267e-22)
(0.0486878 1.03336e-05 2.10572e-19)
(0.0538574 -0.000133638 -3.26947e-20)
(0.0507465 -0.000127951 1.16805e-21)
(0.0510113 -0.000130399 -2.3784e-21)
(0.0513315 -0.000130991 2.12945e-19)
(0.0535229 -0.000127814 -2.68795e-20)
(0.0504493 -0.000122816 -1.51323e-19)
(0.0507065 -0.00012516 1.16e-20)
(0.0510254 -0.000125731 1.63584e-19)
(0.0531872 -0.000100518 3.14363e-20)
(0.0501509 -9.84737e-05 -3.50228e-21)
(0.0504005 -0.000100191 1.38365e-22)
(0.0507181 -0.000100658 -1.31354e-21)
(0.0528595 -8.38925e-05 3.83099e-20)
(0.0498595 -8.3608e-05 -1.52414e-19)
(0.0501018 -8.49679e-05 1.69817e-19)
(0.050416 -8.52519e-05 2.53895e-21)
(0.0525135 -7.30845e-05 -1.51984e-20)
(0.0495508 -7.39382e-05 -2.10097e-19)
(0.0497854 -7.50215e-05 -2.04411e-19)
(0.0497867 -7.61269e-05 2.30163e-19)
(0.0488451 1.08788e-05 1.29103e-18)
(0.0522254 -7.07386e-05 3.29862e-20)
(0.0492979 -7.18392e-05 -2.15323e-19)
(0.0495258 -7.28224e-05 1.66274e-19)
(0.0495235 -7.38558e-05 2.84908e-19)
(0.0498464 -7.4801e-05 1.96034e-19)
(0.0518906 -8.12866e-05 8.30812e-20)
(0.0489997 -8.11676e-05 -5.96986e-21)
(0.0492201 -8.24004e-05 5.8081e-22)
(0.0492146 -8.36878e-05 -4.76609e-22)
(0.049634 -9.12174e-05 -2.17975e-19)
(0.0515763 -9.87324e-05 1.63199e-22)
(0.0487196 -9.65935e-05 2.12857e-19)
(0.0489332 -9.8204e-05 -2.28166e-20)
(0.0492435 -9.86115e-05 -2.86964e-19)
)
;

boundaryField
{
    inlet
    {
        type            calculated;
        value           uniform (0 0 0);
    }
    outlet2
    {
        type            calculated;
        value           uniform (0 0 0);
    }
    outlet1
    {
        type            calculated;
        value           nonuniform List<vector> 0();
    }
    wall
    {
        type            calculated;
        value           uniform (0 0 0);
    }
    symmetryBottom
    {
        type            symmetry;
    }
    symmetryZ0
    {
        type            symmetry;
    }
    symmetryZ05
    {
        type            symmetry;
    }
    procBoundary1to0
    {
        type            processor;
        value           uniform (0 0 0);
    }
}


// ************************************************************************* //
