/*--------------------------------*- C++ -*----------------------------------*\
| =========                 |                                                 |
| \\      /  F ield         | OpenFOAM: The Open Source CFD Toolbox           |
|  \\    /   O peration     | Version:  2412                                  |
|   \\  /    A nd           | Website:  www.openfoam.com                      |
|    \\/     M anipulation  |                                                 |
\*---------------------------------------------------------------------------*/
FoamFile
{
    version     2.0;
    format      ascii;
    arch        "LSB;label=32;scalar=64";
    class       volVectorField;
    location    "6.4e-06";
    object      U;
}
// * * * * * * * * * * * * * * * * * * * * * * * * * * * * * * * * * * * * * //

dimensions      [0 0 0 0 0 0 0];

internalField   nonuniform List<vector> 
84
(
(2636.39 -0.0224471 0)
(2588.82 -0.115815 0)
(2623.87 -0.0511972 -1.09645e-14)
(2636.39 -4.96337 0)
(2588.85 -7.55219 0)
(2623.87 -6.31678 -1.07418e-14)
(2636.39 -4.94206 0)
(2588.85 -7.51551 0)
(2623.87 -6.28773 1.46811e-14)
(2636.39 -4.94206 0)
(2588.85 -7.5155 0)
(2623.87 -6.28773 -1.95652e-14)
(2636.39 -4.94206 0)
(2588.85 -7.5155 0)
(2623.87 -6.28773 -2.9654e-14)
(2636.39 -4.94206 0)
(2588.85 -7.5155 0)
(2623.87 -6.28773 1.91934e-14)
(2636.39 -4.94206 0)
(2588.85 -7.5155 0)
(2623.87 -6.28773 -2.16418e-14)
(2636.39 -4.94206 0)
(2588.85 -7.5155 0)
(2623.87 -6.28773 -2.46414e-14)
(2636.39 -4.94206 0)
(2588.85 -7.5155 0)
(2623.87 -6.28773 1.0955e-14)
(2636.39 -4.94206 0)
(2588.85 -7.5155 0)
(2623.87 -6.28773 -2.15782e-14)
(2636.39 -4.94206 0)
(2588.85 -7.5148 0)
(2623.87 -6.28754 -5.81706e-14)
(2636.39 -4.94266 0)
(2588.84 -7.44286 0)
(2623.87 -6.26892 0)
(2630.05 6.75753 7.97394e-16)
(2628.43 6.35186 7.75704e-15)
(2628.75 6.38092 7.9998e-16)
(2632.32 -6.52332 7.24146e-16)
(2630.56 -6.62641 8.06718e-15)
(2630.89 -6.61316 -2.24831e-16)
(2632.22 -6.52593 -1.01868e-15)
(2630.47 -6.62751 -3.85203e-15)
(2630.79 -6.60678 -1.23585e-14)
(2632.12 -6.52731 1.3272e-15)
(2630.38 -6.62871 -2.27187e-16)
(2630.6 -6.72095 1.70537e-17)
(2629.68 0.558127 1.13732e-14)
(2632.02 -6.53089 -1.59779e-15)
(2630.29 -6.63194 6.05425e-17)
(2630.51 -6.72432 -1.22648e-16)
(2630.61 -6.71296 1.09129e-14)
(2631.89 -6.28499 -1.32175e-15)
(2630.16 -6.40301 -7.8892e-15)
(2630.38 -6.49262 6.01746e-16)
(2630.48 -6.48174 8.43315e-15)
(2631.66 -4.97355 1.55544e-15)
(2629.92 -5.16398 -1.8366e-16)
(2630.14 -5.22847 7.22055e-18)
(2630.24 -5.2201 -6.81202e-17)
(2631.5 -4.17641 1.90718e-15)
(2629.75 -4.40976 -8.03883e-15)
(2629.97 -4.46018 8.91412e-15)
(2630.07 -4.44736 1.3245e-16)
(2631.31 -3.66206 -7.61549e-16)
(2629.48 -3.92363 -1.11491e-14)
(2629.71 -3.9627 -1.07972e-14)
(2629.69 -4.02096 1.2157e-14)
(2629.66 0.585678 6.9505e-14)
(2631.44 -3.56425 1.66205e-15)
(2629.82 -3.83231 -1.14865e-14)
(2630.02 -3.86717 8.82983e-15)
(2630.01 -3.92221 1.51304e-14)
(2630.13 -3.94685 1.03436e-14)
(2631.35 -4.12202 4.21302e-15)
(2629.7 -4.35608 -3.20389e-16)
(2629.9 -4.40277 3.10335e-17)
(2629.89 -4.47204 -2.54687e-17)
(2630.03 -4.83347 -1.15501e-14)
(2631.29 -5.03708 8.32599e-18)
(2629.64 -5.21363 1.1489e-14)
(2629.84 -5.27782 -1.22624e-15)
(2629.94 -5.26653 -1.53258e-14)
)
;

boundaryField
{
    inlet
    {
        type            calculated;
        value           uniform (0 0 0);
    }
    outlet2
    {
        type            calculated;
        value           uniform (0 0 0);
    }
    outlet1
    {
        type            calculated;
        value           nonuniform List<vector> 0();
    }
    wall
    {
        type            calculated;
        value           uniform (0 0 0);
    }
    symmetryBottom
    {
        type            symmetry;
    }
    symmetryZ0
    {
        type            symmetry;
    }
    symmetryZ05
    {
        type            symmetry;
    }
    procBoundary1to0
    {
        type            processor;
        value           uniform (0 0 0);
    }
}


// ************************************************************************* //
