/*--------------------------------*- C++ -*----------------------------------*\
| =========                 |                                                 |
| \\      /  F ield         | OpenFOAM: The Open Source CFD Toolbox           |
|  \\    /   O peration     | Version:  2412                                  |
|   \\  /    A nd           | Website:  www.openfoam.com                      |
|    \\/     M anipulation  |                                                 |
\*---------------------------------------------------------------------------*/
FoamFile
{
    version     2.0;
    format      ascii;
    arch        "LSB;label=32;scalar=64";
    class       volScalarField;
    location    "4.8e-06";
    object      rho;
}
// * * * * * * * * * * * * * * * * * * * * * * * * * * * * * * * * * * * * * //

dimensions      [0 0 0 0 0 0 0];

internalField   nonuniform List<scalar> 
84
(
2.7699e-05
2.00948e-05
2.06842e-05
2.06552e-05
2.06572e-05
2.06582e-05
2.06592e-05
2.07688e-05
2.89189e-05
2.1e-05
2.1628e-05
2.16122e-05
2.16291e-05
2.16453e-05
2.16621e-05
2.17757e-05
2.87054e-05
2.09839e-05
2.15206e-05
2.15114e-05
2.15263e-05
2.15409e-05
2.15559e-05
2.16691e-05
2.86088e-05
2.08234e-05
2.14411e-05
2.14228e-05
2.14369e-05
2.14502e-05
2.1563e-05
2.85512e-05
2.07233e-05
2.13407e-05
2.13208e-05
2.13333e-05
2.13449e-05
2.14573e-05
2.84218e-05
2.0627e-05
2.12402e-05
2.12189e-05
2.12297e-05
2.12396e-05
2.13516e-05
2.82921e-05
2.05313e-05
2.114e-05
2.11172e-05
2.11264e-05
2.11346e-05
2.12461e-05
2.81193e-05
2.04811e-05
2.10371e-05
2.10174e-05
2.10247e-05
2.10313e-05
2.11424e-05
2.79999e-05
2.03445e-05
2.0943e-05
2.09175e-05
2.09234e-05
2.10341e-05
2.79206e-05
2.02538e-05
2.0851e-05
2.08242e-05
2.08288e-05
2.09391e-05
2.77669e-05
2.0158e-05
2.07486e-05
2.07203e-05
2.07232e-05
2.08331e-05
2.75219e-05
2.00876e-05
2.06487e-05
2.06212e-05
2.06224e-05
2.06226e-05
2.07322e-05
)
;

boundaryField
{
    inlet
    {
        type            calculated;
        value           nonuniform List<scalar> 0();
    }
    outlet2
    {
        type            calculated;
        value           uniform 0;
    }
    outlet1
    {
        type            calculated;
        value           uniform 0;
    }
    wall
    {
        type            calculated;
        value           uniform 0;
    }
    symmetryBottom
    {
        type            symmetry;
    }
    symmetryZ0
    {
        type            symmetry;
    }
    symmetryZ05
    {
        type            symmetry;
    }
    procBoundary0to1
    {
        type            processor;
        value           uniform 0;
    }
}


// ************************************************************************* //
