/*--------------------------------*- C++ -*----------------------------------*\
| =========                 |                                                 |
| \\      /  F ield         | OpenFOAM: The Open Source CFD Toolbox           |
|  \\    /   O peration     | Version:  2412                                  |
|   \\  /    A nd           | Website:  www.openfoam.com                      |
|    \\/     M anipulation  |                                                 |
\*---------------------------------------------------------------------------*/
FoamFile
{
    version     2.0;
    format      ascii;
    arch        "LSB;label=32;scalar=64";
    class       volScalarField;
    location    "4.1e-06";
    object      E_dof0;
}
// * * * * * * * * * * * * * * * * * * * * * * * * * * * * * * * * * * * * * //

dimensions      [0 0 0 0 0 0 0];

internalField   nonuniform List<scalar> 
84
(
98.3473
74.6271
76.2102
76.1434
76.1478
76.1501
76.1525
76.4981
102.126
77.5611
79.2462
79.2232
79.2753
79.3266
79.3796
79.7361
101.505
77.4657
78.9127
78.9032
78.9494
78.9955
79.0431
79.3985
101.204
76.9944
78.6537
78.6226
78.6657
78.7079
79.0622
101.002
76.6779
78.3351
78.2989
78.3369
78.3737
78.7269
100.609
76.3717
78.0181
77.9771
78.0099
78.0414
78.3935
100.224
76.073
77.7081
77.6626
77.6903
77.7166
78.0676
99.7247
75.896
77.3945
77.3546
77.377
77.3983
77.7482
99.413
75.5294
77.1408
77.0872
77.106
77.4549
99.0271
75.142
76.745
76.6855
76.6981
77.0457
98.5976
74.8567
76.4442
76.3804
76.388
76.7345
97.8541
74.6226
76.133
76.0694
76.0719
76.0724
76.418
)
;

boundaryField
{
    inlet
    {
        type            calculated;
        value           nonuniform List<scalar> 0();
    }
    outlet2
    {
        type            calculated;
        value           uniform 99.4306;
    }
    outlet1
    {
        type            calculated;
        value           uniform 99.4306;
    }
    wall
    {
        type            calculated;
        value           uniform 99.4306;
    }
    symmetryBottom
    {
        type            symmetry;
    }
    symmetryZ0
    {
        type            symmetry;
    }
    symmetryZ05
    {
        type            symmetry;
    }
    procBoundary0to1
    {
        type            processor;
        value           uniform 99.4306;
    }
}


// ************************************************************************* //
