/*--------------------------------*- C++ -*----------------------------------*\
| =========                 |                                                 |
| \\      /  F ield         | OpenFOAM: The Open Source CFD Toolbox           |
|  \\    /   O peration     | Version:  2412                                  |
|   \\  /    A nd           | Website:  www.openfoam.com                      |
|    \\/     M anipulation  |                                                 |
\*---------------------------------------------------------------------------*/
FoamFile
{
    version     2.0;
    format      ascii;
    arch        "LSB;label=32;scalar=64";
    class       volScalarField;
    location    "4.1e-06";
    object      T;
}
// * * * * * * * * * * * * * * * * * * * * * * * * * * * * * * * * * * * * * //

dimensions      [0 0 0 0 0 0 0];

internalField   nonuniform List<scalar> 
84
(
202.489
202.535
202.592
202.629
202.67
202.712
202.755
202.752
199.989
199.98
200.001
199.998
199.998
199.998
199.998
199.999
199.978
199.981
200
199.998
199.998
199.998
199.998
199.999
199.99
199.979
200.001
199.998
199.998
199.998
199.999
199.991
199.981
200.003
200.001
200.001
200.001
200.001
200.399
200.411
200.436
200.439
200.444
200.449
200.448
202.229
202.298
202.348
202.381
202.418
202.456
202.453
203.873
204.112
204.144
204.209
204.276
204.344
204.339
210.424
211.512
211.648
211.845
212.048
212.03
195.611
195.498
195.454
195.378
195.303
195.309
198.897
198.917
198.918
198.898
198.88
198.882
199.917
199.523
199.555
199.545
199.537
199.53
199.531
)
;

boundaryField
{
    inlet
    {
        type            calculated;
        value           nonuniform List<scalar> 0();
    }
    outlet2
    {
        type            calculated;
        value           uniform 0;
    }
    outlet1
    {
        type            calculated;
        value           uniform 0;
    }
    wall
    {
        type            calculated;
        value           uniform 0;
    }
    symmetryBottom
    {
        type            symmetry;
    }
    symmetryZ0
    {
        type            symmetry;
    }
    symmetryZ05
    {
        type            symmetry;
    }
    procBoundary0to1
    {
        type            processor;
        value           uniform 0;
    }
}


// ************************************************************************* //
