/*--------------------------------*- C++ -*----------------------------------*\
| =========                 |                                                 |
| \\      /  F ield         | OpenFOAM: The Open Source CFD Toolbox           |
|  \\    /   O peration     | Version:  2412                                  |
|   \\  /    A nd           | Website:  www.openfoam.com                      |
|    \\/     M anipulation  |                                                 |
\*---------------------------------------------------------------------------*/
FoamFile
{
    version     2.0;
    format      ascii;
    arch        "LSB;label=32;scalar=64";
    class       volScalarField;
    location    "9e-06";
    object      E;
}
// * * * * * * * * * * * * * * * * * * * * * * * * * * * * * * * * * * * * * //

dimensions      [0 0 0 0 0 0 0];

internalField   nonuniform List<scalar> 
84
(
117.905
8.84365
18.2026
117.944
8.92325
17.5435
117.968
8.91738
17.6289
117.969
8.908
17.7148
117.97
8.89864
17.8006
117.97
8.88932
17.8859
117.971
8.88004
17.9707
117.972
8.8708
18.0551
117.973
8.86159
18.139
117.974
8.85242
18.2224
117.975
8.84326
18.3054
117.976
8.83402
18.3879
59.5827
56.0971
53.4966
63.7217
59.8623
57.0765
63.2486
59.431
56.7151
62.7157
58.8042
59.5956
50.8178
62.1817
58.3385
58.7224
55.7229
61.6527
57.8594
58.2249
55.3245
61.128
57.384
57.7375
54.8648
60.6075
56.9124
57.2533
54.4291
60.0913
56.4482
56.653
56.9619
51.5388
59.5793
55.9839
56.1872
56.3096
53.5019
59.0715
55.5237
55.7176
55.8262
53.113
58.5682
55.0645
55.358
52.6844
)
;

boundaryField
{
    inlet
    {
        type            calculated;
        value           uniform 0;
    }
    outlet2
    {
        type            calculated;
        value           uniform 0;
    }
    outlet1
    {
        type            calculated;
        value           nonuniform List<scalar> 0();
    }
    wall
    {
        type            calculated;
        value           uniform 0;
    }
    symmetryBottom
    {
        type            symmetry;
    }
    symmetryZ0
    {
        type            symmetry;
    }
    symmetryZ05
    {
        type            symmetry;
    }
    procBoundary1to0
    {
        type            processor;
        value           uniform 0;
    }
}


// ************************************************************************* //
