/*--------------------------------*- C++ -*----------------------------------*\
| =========                 |                                                 |
| \\      /  F ield         | OpenFOAM: The Open Source CFD Toolbox           |
|  \\    /   O peration     | Version:  2412                                  |
|   \\  /    A nd           | Website:  www.openfoam.com                      |
|    \\/     M anipulation  |                                                 |
\*---------------------------------------------------------------------------*/
FoamFile
{
    version     2.0;
    format      ascii;
    arch        "LSB;label=32;scalar=64";
    class       volScalarField;
    location    "9e-06";
    object      T;
}
// * * * * * * * * * * * * * * * * * * * * * * * * * * * * * * * * * * * * * //

dimensions      [0 0 0 0 0 0 0];

internalField   nonuniform List<scalar> 
84
(
200.061
188.21
197.791
200.022
188.026
199.254
200.047
188.035
199.326
200.047
187.998
199.351
200.047
187.961
199.376
200.047
187.925
199.4
200.047
187.888
199.424
200.047
187.851
199.447
200.047
187.815
199.469
200.047
187.778
199.491
200.047
187.741
199.511
200.048
187.707
199.533
203.456
203.307
203.213
200.039
199.998
199.916
200.033
199.995
199.919
200.034
199.987
199.997
199.81
200.034
199.987
200.008
199.867
200.034
199.988
200.004
199.911
200.034
199.988
200.004
199.911
200.034
199.988
200.004
199.917
200.033
199.988
199.997
199.991
199.838
200.033
199.988
199.996
200.007
199.866
200.033
199.988
199.996
200.007
199.847
200.034
199.988
200.005
199.901
)
;

boundaryField
{
    inlet
    {
        type            calculated;
        value           uniform 0;
    }
    outlet2
    {
        type            calculated;
        value           uniform 0;
    }
    outlet1
    {
        type            calculated;
        value           nonuniform List<scalar> 0();
    }
    wall
    {
        type            calculated;
        value           uniform 0;
    }
    symmetryBottom
    {
        type            symmetry;
    }
    symmetryZ0
    {
        type            symmetry;
    }
    symmetryZ05
    {
        type            symmetry;
    }
    procBoundary1to0
    {
        type            processor;
        value           uniform 0;
    }
}


// ************************************************************************* //
