/*--------------------------------*- C++ -*----------------------------------*\
| =========                 |                                                 |
| \\      /  F ield         | OpenFOAM: The Open Source CFD Toolbox           |
|  \\    /   O peration     | Version:  2412                                  |
|   \\  /    A nd           | Website:  www.openfoam.com                      |
|    \\/     M anipulation  |                                                 |
\*---------------------------------------------------------------------------*/
FoamFile
{
    version     2.0;
    format      ascii;
    arch        "LSB;label=32;scalar=64";
    class       volScalarField;
    location    "7e-06";
    object      T;
}
// * * * * * * * * * * * * * * * * * * * * * * * * * * * * * * * * * * * * * //

dimensions      [0 0 0 0 0 0 0];

internalField   nonuniform List<scalar> 
84
(
204.255
204.299
204.448
204.502
204.573
204.645
204.719
204.711
199.972
199.925
200.009
199.996
199.997
199.997
199.997
199.998
199.946
199.926
200.008
199.996
199.997
199.997
199.997
199.998
199.982
199.92
200.01
199.996
199.997
199.997
199.998
199.981
199.926
200.017
200.002
200.004
200.004
200.005
200.546
200.541
200.624
200.615
200.62
200.624
200.623
203.771
203.882
203.999
204.048
204.111
204.175
204.166
206.601
207.164
207.165
207.288
207.404
207.525
207.508
218.353
221.449
221.469
221.882
222.293
222.23
192.288
192.104
192.076
191.931
191.797
191.815
198.007
198.076
198.105
198.061
198.03
198.035
199.789
199.091
199.227
199.197
199.186
199.172
199.174
)
;

boundaryField
{
    inlet
    {
        type            calculated;
        value           nonuniform List<scalar> 0();
    }
    outlet2
    {
        type            calculated;
        value           uniform 0;
    }
    outlet1
    {
        type            calculated;
        value           uniform 0;
    }
    wall
    {
        type            calculated;
        value           uniform 0;
    }
    symmetryBottom
    {
        type            symmetry;
    }
    symmetryZ0
    {
        type            symmetry;
    }
    symmetryZ05
    {
        type            symmetry;
    }
    procBoundary0to1
    {
        type            processor;
        value           uniform 0;
    }
}


// ************************************************************************* //
