/*--------------------------------*- C++ -*----------------------------------*\
| =========                 |                                                 |
| \\      /  F ield         | OpenFOAM: The Open Source CFD Toolbox           |
|  \\    /   O peration     | Version:  2412                                  |
|   \\  /    A nd           | Website:  www.openfoam.com                      |
|    \\/     M anipulation  |                                                 |
\*---------------------------------------------------------------------------*/
FoamFile
{
    version     2.0;
    format      ascii;
    arch        "LSB;label=32;scalar=64";
    class       volVectorField;
    location    "7e-06";
    object      U;
}
// * * * * * * * * * * * * * * * * * * * * * * * * * * * * * * * * * * * * * //

dimensions      [0 0 0 0 0 0 0];

internalField   nonuniform List<vector> 
84
(
(2633.98 7.12341 7.23179e-15)
(2625.6 7.25735 -1.10737e-14)
(2628.04 7.35227 -1.69442e-14)
(2627.77 7.45854 1.16535e-14)
(2627.77 7.56714 -1.8297e-15)
(2627.75 7.67898 1.48246e-15)
(2627.72 7.79416 1.6311e-14)
(2627.87 7.78008 1.70899e-15)
(2636.31 -7.34989 6.86433e-15)
(2628.09 -7.61625 -1.03911e-14)
(2630.52 -7.66892 -2.10633e-14)
(2630.29 -7.79123 2.98762e-15)
(2630.33 -7.90971 -3.93423e-14)
(2630.35 -8.03244 1.03456e-14)
(2630.36 -8.15901 3.21975e-14)
(2630.5 -8.14209 5.84723e-15)
(2636.05 -6.58875 -2.72822e-14)
(2628.33 -8.73676 8.96446e-15)
(2630.35 -7.52189 1.14838e-14)
(2630.19 -7.80481 -1.67412e-15)
(2630.22 -7.91058 -6.21442e-16)
(2630.23 -8.03408 1.53257e-14)
(2630.25 -8.16067 -1.32469e-14)
(2630.39 -8.14373 -1.44536e-14)
(2635.98 -6.88224 -2.60869e-14)
(2627.91 -7.78083 1.96071e-14)
(2630.32 -7.78698 -2.3384e-15)
(2630.09 -7.91329 -3.56745e-14)
(2630.12 -8.03569 3.62194e-14)
(2630.13 -8.16238 5.52454e-15)
(2630.27 -8.14543 -1.32982e-14)
(2636.02 -7.47902 -1.57031e-14)
(2627.77 -7.71282 -6.34485e-15)
(2630.21 -7.79511 8.06737e-16)
(2629.98 -7.91763 2.44531e-16)
(2630.01 -8.04033 -1.22031e-14)
(2630.02 -8.16716 1.12769e-14)
(2630.16 -8.15019 2.25784e-14)
(2635.89 -7.25332 -1.02441e-14)
(2627.62 -7.46527 2.09512e-14)
(2630.07 -7.55204 -2.48503e-15)
(2629.83 -7.67333 2.33467e-14)
(2629.86 -7.79536 -2.17852e-14)
(2629.87 -7.92157 1.81981e-14)
(2630.01 -7.90506 -3.82634e-14)
(2635.66 -5.83385 -4.15613e-18)
(2627.32 -6.02241 1.9149e-14)
(2629.78 -6.07878 -2.37337e-15)
(2629.54 -6.17806 1.15205e-16)
(2629.56 -6.27596 1.92061e-14)
(2629.57 -6.37737 1.99456e-15)
(2629.71 -6.36416 1.88376e-14)
(2635.45 -4.29245 2.89126e-16)
(2627.26 -6.09318 3.59241e-16)
(2629.55 -5.07256 -1.24062e-16)
(2629.34 -5.29466 -3.21291e-16)
(2629.35 -5.36899 -6.1649e-17)
(2629.35 -5.45787 1.56967e-16)
(2629.5 -5.44636 -1.5006e-14)
(2635.22 -4.12446 3.79843e-14)
(2626.75 -4.65787 -6.73598e-15)
(2629.25 -4.66953 -4.03598e-14)
(2629 -4.74646 -1.15343e-14)
(2629.01 -4.82192 2.27293e-14)
(2629.15 -4.81215 -3.24233e-15)
(2635.39 -4.3636 -1.3399e-14)
(2627.26 -4.47531 2.41967e-15)
(2629.66 -4.52799 -1.86585e-14)
(2629.42 -4.59698 2.123e-14)
(2629.45 -4.66666 3.50465e-14)
(2629.58 -4.6577 -4.35457e-15)
(2635.32 -4.58864 -1.68559e-14)
(2627.09 -5.2043 3.28825e-15)
(2629.52 -5.16543 -1.74167e-16)
(2629.27 -5.25379 3.67934e-14)
(2629.29 -5.33498 3.68605e-14)
(2629.43 -5.32446 9.36524e-16)
(2635.2 -0.773618 -1.50095e-15)
(2627.04 -7.25424 1.95354e-16)
(2629.43 -5.9967 -1.05165e-17)
(2629.19 -6.20651 2.25846e-14)
(2629.21 -6.29336 -2.92047e-15)
(2629.21 -6.39141 2.33408e-16)
(2629.35 -6.37901 -1.83375e-14)
)
;

boundaryField
{
    inlet
    {
        type            calculated;
        value           nonuniform List<vector> 0();
    }
    outlet2
    {
        type            calculated;
        value           uniform (0 0 0);
    }
    outlet1
    {
        type            calculated;
        value           uniform (0 0 0);
    }
    wall
    {
        type            calculated;
        value           uniform (0 0 0);
    }
    symmetryBottom
    {
        type            symmetry;
    }
    symmetryZ0
    {
        type            symmetry;
    }
    symmetryZ05
    {
        type            symmetry;
    }
    procBoundary0to1
    {
        type            processor;
        value           uniform (0 0 0);
    }
}


// ************************************************************************* //
