/*--------------------------------*- C++ -*----------------------------------*\
| =========                 |                                                 |
| \\      /  F ield         | OpenFOAM: The Open Source CFD Toolbox           |
|  \\    /   O peration     | Version:  2412                                  |
|   \\  /    A nd           | Website:  www.openfoam.com                      |
|    \\/     M anipulation  |                                                 |
\*---------------------------------------------------------------------------*/
FoamFile
{
    version     2.0;
    format      ascii;
    arch        "LSB;label=32;scalar=64";
    class       volVectorField;
    location    "6.9e-06";
    object      rhoU;
}
// * * * * * * * * * * * * * * * * * * * * * * * * * * * * * * * * * * * * * //

dimensions      [0 0 0 0 0 0 0];

internalField   nonuniform List<vector> 
84
(
(0.0741121 -7.1743e-07 0)
(0.0113849 -6.79313e-07 0)
(0.0269567 -5.80282e-07 -1.17115e-19)
(0.0741409 -0.000147639 0)
(0.0114041 -3.85993e-05 0)
(0.0269763 -6.96951e-05 -1.14764e-19)
(0.0741336 -0.000146948 0)
(0.0114017 -3.83871e-05 0)
(0.0269726 -6.93424e-05 1.56905e-19)
(0.0741336 -0.000146948 0)
(0.0114017 -3.83871e-05 0)
(0.0269726 -6.93424e-05 -2.13293e-19)
(0.0741336 -0.000146948 0)
(0.0114017 -3.83871e-05 0)
(0.0269726 -6.93424e-05 -3.2559e-19)
(0.0741336 -0.000146948 0)
(0.0114017 -3.83871e-05 0)
(0.0269726 -6.93424e-05 2.09996e-19)
(0.0741336 -0.000146948 0)
(0.0114017 -3.83871e-05 0)
(0.0269726 -6.93424e-05 -2.39831e-19)
(0.0741336 -0.000146948 0)
(0.0114017 -3.83871e-05 0)
(0.0269726 -6.93424e-05 -2.71732e-19)
(0.0741336 -0.000146948 0)
(0.0114017 -3.83871e-05 0)
(0.0269726 -6.93424e-05 1.16287e-19)
(0.0741336 -0.000146948 0)
(0.0114017 -3.8387e-05 0)
(0.0269726 -6.93424e-05 -2.39935e-19)
(0.0741336 -0.000146948 0)
(0.0114017 -3.83823e-05 0)
(0.0269726 -6.93402e-05 -6.39578e-19)
(0.0741338 -0.000146966 0)
(0.0113971 -3.79385e-05 0)
(0.0269705 -6.91415e-05 0)
(0.0504189 0.000139715 1.73431e-20)
(0.0472166 0.00012252 1.50662e-19)
(0.0478115 0.00012472 1.59296e-20)
(0.0537858 -0.000143715 1.67183e-20)
(0.0501693 -0.000136282 1.64909e-19)
(0.0508175 -0.00013772 -5.03588e-21)
(0.0534287 -0.000142828 -2.3317e-20)
(0.0498559 -0.000135457 -7.90116e-20)
(0.0504943 -0.000136704 -2.49643e-19)
(0.0530735 -0.000141914 3.03331e-20)
(0.0495444 -0.000134641 -4.97006e-21)
(0.0498705 -0.000137392 3.98643e-22)
(0.0470986 1.1746e-05 2.09213e-19)
(0.0527198 -0.000141056 -3.2174e-20)
(0.0492342 -0.000133871 1.26332e-21)
(0.0495518 -0.000136591 -2.50966e-21)
(0.0498864 -0.000137258 2.1229e-19)
(0.0523656 -0.000135043 -2.98351e-20)
(0.0489236 -0.000128645 -1.57797e-19)
(0.0492325 -0.000131249 1.3609e-20)
(0.0495656 -0.000131893 1.77124e-19)
(0.05201 -0.000106044 3.47726e-20)
(0.0486116 -0.000103109 -4.15859e-21)
(0.0489119 -0.000105001 3.06305e-22)
(0.0492436 -0.000105528 -1.39691e-21)
(0.0516635 -8.85129e-05 4.21568e-20)
(0.0483075 -8.76206e-05 -1.60024e-19)
(0.0485995 -8.91105e-05 1.80257e-19)
(0.0489273 -8.94306e-05 2.82506e-21)
(0.0512958 -7.68309e-05 -1.68412e-20)
(0.0479835 -7.72993e-05 -2.11921e-19)
(0.0482668 -7.84695e-05 -2.0438e-19)
(0.0482649 -7.9626e-05 2.35574e-19)
(0.0472775 1.23511e-05 1.33711e-18)
(0.0509945 -7.40699e-05 3.63994e-20)
(0.0477228 -7.48655e-05 -2.17811e-19)
(0.0479985 -7.59144e-05 1.77776e-19)
(0.0479929 -7.69886e-05 2.91141e-19)
(0.0483327 -7.80754e-05 2.02838e-19)
(0.0506397 -8.52912e-05 9.21113e-20)
(0.0474108 -8.46536e-05 -7.22753e-21)
(0.047678 -8.59885e-05 6.9015e-22)
(0.0476692 -8.73393e-05 -5.48198e-22)
(0.0481194 -9.59207e-05 -2.17975e-19)
(0.0503084 -0.00010363 1.71776e-22)
(0.0471193 -0.000100653 2.16017e-19)
(0.0473788 -0.000102414 -2.59162e-20)
(0.0477023 -0.000102873 -2.94999e-19)
)
;

boundaryField
{
    inlet
    {
        type            calculated;
        value           uniform (0 0 0);
    }
    outlet2
    {
        type            calculated;
        value           uniform (0 0 0);
    }
    outlet1
    {
        type            calculated;
        value           nonuniform List<vector> 0();
    }
    wall
    {
        type            calculated;
        value           uniform (0 0 0);
    }
    symmetryBottom
    {
        type            symmetry;
    }
    symmetryZ0
    {
        type            symmetry;
    }
    symmetryZ05
    {
        type            symmetry;
    }
    procBoundary1to0
    {
        type            processor;
        value           uniform (0 0 0);
    }
}


// ************************************************************************* //
