/*--------------------------------*- C++ -*----------------------------------*\
| =========                 |                                                 |
| \\      /  F ield         | OpenFOAM: The Open Source CFD Toolbox           |
|  \\    /   O peration     | Version:  2412                                  |
|   \\  /    A nd           | Website:  www.openfoam.com                      |
|    \\/     M anipulation  |                                                 |
\*---------------------------------------------------------------------------*/
FoamFile
{
    version     2.0;
    format      ascii;
    arch        "LSB;label=32;scalar=64";
    class       volScalarField;
    location    "6.9e-06";
    object      T;
}
// * * * * * * * * * * * * * * * * * * * * * * * * * * * * * * * * * * * * * //

dimensions      [0 0 0 0 0 0 0];

internalField   nonuniform List<scalar> 
84
(
200.014
194.374
200.326
199.969
194.208
200.241
199.957
194.186
200.224
199.957
194.186
200.224
199.957
194.186
200.224
199.957
194.186
200.224
199.957
194.186
200.224
199.957
194.186
200.224
199.957
194.186
200.224
199.957
194.186
200.224
199.957
194.185
200.224
199.957
194.135
200.215
204.385
204.087
204.121
200.025
199.985
200
200.025
199.985
200
200.025
199.985
199.999
200.035
200.031
199.991
200.005
200.004
200.658
200.57
200.593
200.59
203.907
203.625
203.715
203.706
206.979
206.506
206.66
206.645
220.458
218.894
219.386
219.698
197.875
192.556
192.897
192.765
192.656
192.244
198.225
198.29
198.266
198.241
198.387
199.27
199.274
199.272
199.273
)
;

boundaryField
{
    inlet
    {
        type            calculated;
        value           uniform 0;
    }
    outlet2
    {
        type            calculated;
        value           uniform 0;
    }
    outlet1
    {
        type            calculated;
        value           nonuniform List<scalar> 0();
    }
    wall
    {
        type            calculated;
        value           uniform 0;
    }
    symmetryBottom
    {
        type            symmetry;
    }
    symmetryZ0
    {
        type            symmetry;
    }
    symmetryZ05
    {
        type            symmetry;
    }
    procBoundary1to0
    {
        type            processor;
        value           uniform 0;
    }
}


// ************************************************************************* //
