/*--------------------------------*- C++ -*----------------------------------*\
| =========                 |                                                 |
| \\      /  F ield         | OpenFOAM: The Open Source CFD Toolbox           |
|  \\    /   O peration     | Version:  2412                                  |
|   \\  /    A nd           | Website:  www.openfoam.com                      |
|    \\/     M anipulation  |                                                 |
\*---------------------------------------------------------------------------*/
FoamFile
{
    version     2.0;
    format      ascii;
    arch        "LSB;label=32;scalar=64";
    class       volVectorField;
    location    "6.9e-06";
    object      U;
}
// * * * * * * * * * * * * * * * * * * * * * * * * * * * * * * * * * * * * * //

dimensions      [0 0 0 0 0 0 0];

internalField   nonuniform List<vector> 
84
(
(2636.39 -0.0255211 0)
(2572.44 -0.153493 0)
(2623.72 -0.0564792 -1.13989e-14)
(2636.39 -5.2499 0)
(2572.5 -8.70711 0)
(2623.72 -6.77854 -1.11619e-14)
(2636.39 -5.22586 0)
(2572.5 -8.66104 0)
(2623.72 -6.74518 1.52627e-14)
(2636.39 -5.22586 0)
(2572.5 -8.66103 0)
(2623.72 -6.74517 -2.07477e-14)
(2636.39 -5.22586 0)
(2572.5 -8.66103 0)
(2623.72 -6.74517 -3.16713e-14)
(2636.39 -5.22586 0)
(2572.5 -8.66103 0)
(2623.72 -6.74517 2.0427e-14)
(2636.39 -5.22586 0)
(2572.5 -8.66103 0)
(2623.72 -6.74517 -2.33292e-14)
(2636.39 -5.22586 0)
(2572.5 -8.66103 0)
(2623.72 -6.74517 -2.64323e-14)
(2636.39 -5.22586 0)
(2572.5 -8.66103 0)
(2623.72 -6.74517 1.13116e-14)
(2636.39 -5.22586 0)
(2572.5 -8.66102 0)
(2623.72 -6.74517 -2.33393e-14)
(2636.39 -5.22587 0)
(2572.5 -8.66 0)
(2623.72 -6.74497 -6.2214e-14)
(2636.39 -5.22648 0)
(2572.48 -8.56322 0)
(2623.72 -6.72615 0)
(2629.62 7.28692 9.04538e-16)
(2627.78 6.81867 8.3849e-15)
(2628.15 6.85573 8.75637e-16)
(2632.08 -7.03287 8.18133e-16)
(2630.07 -7.14442 8.64519e-15)
(2630.46 -7.12881 -2.60672e-16)
(2631.97 -7.03588 -1.14863e-15)
(2629.97 -7.14558 -4.16798e-15)
(2630.36 -7.12121 -1.30045e-14)
(2631.86 -7.03738 1.50419e-15)
(2629.87 -7.14688 -2.63817e-16)
(2630.15 -7.24599 2.10243e-17)
(2629.15 0.655687 1.16787e-14)
(2631.75 -7.04146 -1.60611e-15)
(2629.78 -7.15053 6.74785e-17)
(2630.05 -7.24981 -1.33205e-16)
(2630.16 -7.23662 1.11925e-14)
(2631.61 -6.78651 -1.49935e-15)
(2629.64 -6.91465 -8.48157e-15)
(2629.92 -7.01108 7.2697e-16)
(2630.02 -6.99843 9.39843e-15)
(2631.35 -5.36514 1.75926e-15)
(2629.38 -5.57709 -2.24936e-16)
(2629.65 -5.64516 1.64679e-17)
(2629.75 -5.6355 -7.45994e-17)
(2631.18 -4.50789 2.14701e-15)
(2629.19 -4.76885 -8.70949e-15)
(2629.46 -4.8213 9.75277e-15)
(2629.57 -4.80639 1.51831e-16)
(2630.97 -3.94066 -8.63784e-16)
(2628.88 -4.23501 -1.16105e-14)
(2629.16 -4.27435 -1.11329e-14)
(2629.14 -4.33748 1.28324e-14)
(2629.12 0.686852 7.43573e-14)
(2631.13 -3.82174 1.87808e-15)
(2629.29 -4.12472 -1.20003e-14)
(2629.54 -4.15888 9.73923e-15)
(2629.52 -4.21819 1.59516e-14)
(2629.65 -4.24788 1.10359e-14)
(2631.03 -4.43138 4.78573e-15)
(2629.15 -4.69444 -4.008e-16)
(2629.4 -4.74219 3.80612e-17)
(2629.38 -4.81754 -3.0238e-17)
(2629.54 -5.2417 -1.19115e-14)
(2630.96 -5.41949 8.9833e-18)
(2629.08 -5.61606 1.20529e-14)
(2629.33 -5.68358 -1.43824e-15)
(2629.44 -5.67051 -1.62609e-14)
)
;

boundaryField
{
    inlet
    {
        type            calculated;
        value           uniform (0 0 0);
    }
    outlet2
    {
        type            calculated;
        value           uniform (0 0 0);
    }
    outlet1
    {
        type            calculated;
        value           nonuniform List<vector> 0();
    }
    wall
    {
        type            calculated;
        value           uniform (0 0 0);
    }
    symmetryBottom
    {
        type            symmetry;
    }
    symmetryZ0
    {
        type            symmetry;
    }
    symmetryZ05
    {
        type            symmetry;
    }
    procBoundary1to0
    {
        type            processor;
        value           uniform (0 0 0);
    }
}


// ************************************************************************* //
