/*--------------------------------*- C++ -*----------------------------------*\
| =========                 |                                                 |
| \\      /  F ield         | OpenFOAM: The Open Source CFD Toolbox           |
|  \\    /   O peration     | Version:  2412                                  |
|   \\  /    A nd           | Website:  www.openfoam.com                      |
|    \\/     M anipulation  |                                                 |
\*---------------------------------------------------------------------------*/
FoamFile
{
    version     2.0;
    format      ascii;
    arch        "LSB;label=32;scalar=64";
    class       volScalarField;
    location    "1.6e-06";
    object      rho_dof0;
}
// * * * * * * * * * * * * * * * * * * * * * * * * * * * * * * * * * * * * * //

dimensions      [0 0 0 0 0 0 0];

internalField   nonuniform List<scalar> 
84
(
2.80919e-05
2.52893e-05
2.53588e-05
2.53579e-05
2.53582e-05
2.53584e-05
2.53586e-05
2.54012e-05
2.85029e-05
2.56671e-05
2.57432e-05
2.57481e-05
2.57543e-05
2.57607e-05
2.57673e-05
2.58103e-05
2.84506e-05
2.56362e-05
2.57032e-05
2.57078e-05
2.57134e-05
2.57191e-05
2.57251e-05
2.57681e-05
2.84154e-05
2.55939e-05
2.56686e-05
2.56725e-05
2.56776e-05
2.56829e-05
2.57259e-05
2.83812e-05
2.55543e-05
2.56285e-05
2.56317e-05
2.56362e-05
2.56408e-05
2.56837e-05
2.83384e-05
2.55148e-05
2.55883e-05
2.55909e-05
2.55948e-05
2.55987e-05
2.56416e-05
2.82956e-05
2.54754e-05
2.55482e-05
2.55502e-05
2.55534e-05
2.55567e-05
2.55995e-05
2.82476e-05
2.54408e-05
2.55082e-05
2.55097e-05
2.55123e-05
2.55149e-05
2.55577e-05
2.82076e-05
2.53984e-05
2.54698e-05
2.54706e-05
2.54726e-05
2.55153e-05
2.81702e-05
2.53595e-05
2.54303e-05
2.54306e-05
2.54319e-05
2.54746e-05
2.81242e-05
2.53196e-05
2.53896e-05
2.53892e-05
2.53898e-05
2.54325e-05
2.80393e-05
2.52828e-05
2.53491e-05
2.53482e-05
2.53482e-05
2.53483e-05
2.53908e-05
)
;

boundaryField
{
    inlet
    {
        type            calculated;
        value           nonuniform List<scalar> 0();
    }
    outlet2
    {
        type            calculated;
        value           uniform 2.81085e-05;
    }
    outlet1
    {
        type            calculated;
        value           uniform 2.81085e-05;
    }
    wall
    {
        type            calculated;
        value           uniform 2.81085e-05;
    }
    symmetryBottom
    {
        type            symmetry;
    }
    symmetryZ0
    {
        type            symmetry;
    }
    symmetryZ05
    {
        type            symmetry;
    }
    procBoundary0to1
    {
        type            processor;
        value           uniform 2.81085e-05;
    }
}


// ************************************************************************* //
