/*--------------------------------*- C++ -*----------------------------------*\
| =========                 |                                                 |
| \\      /  F ield         | OpenFOAM: The Open Source CFD Toolbox           |
|  \\    /   O peration     | Version:  2412                                  |
|   \\  /    A nd           | Website:  www.openfoam.com                      |
|    \\/     M anipulation  |                                                 |
\*---------------------------------------------------------------------------*/
FoamFile
{
    version     2.0;
    format      ascii;
    arch        "LSB;label=32;scalar=64";
    class       volVectorField;
    location    "1.6e-06";
    object      U;
}
// * * * * * * * * * * * * * * * * * * * * * * * * * * * * * * * * * * * * * //

dimensions      [0 0 0 0 0 0 0];

internalField   nonuniform List<vector> 
84
(
(2636.03 1.68924 1.78736e-15)
(2634.35 1.72037 -2.05092e-15)
(2634.43 1.74535 -4.58313e-15)
(2634.43 1.77145 2.11599e-15)
(2634.42 1.79832 -2.72771e-17)
(2634.42 1.82602 2.53906e-16)
(2634.41 1.85459 4.28727e-15)
(2634.44 1.85379 9.18422e-16)
(2636.57 -1.68629 1.71651e-15)
(2634.91 -1.72961 -1.86479e-15)
(2635 -1.75418 -5.55701e-15)
(2635 -1.7806 2.00199e-16)
(2635 -1.8078 -9.66804e-15)
(2635.01 -1.83585 1.25235e-15)
(2635.01 -1.86478 7.9791e-15)
(2635.04 -1.86376 1.96733e-15)
(2636.54 -1.63987 -7.8627e-15)
(2634.89 -1.7693 1.28228e-15)
(2634.97 -1.75339 2.82931e-15)
(2634.97 -1.78096 -1.01369e-16)
(2634.98 -1.80815 -5.55245e-17)
(2634.98 -1.83621 3.97132e-15)
(2634.98 -1.86515 -3.14554e-15)
(2635.01 -1.86413 -4.14819e-15)
(2636.52 -1.67384 -7.95092e-15)
(2634.86 -1.75643 4.08025e-15)
(2634.95 -1.78125 -1.28819e-16)
(2634.95 -1.8085 -8.95822e-15)
(2634.96 -1.83657 8.12299e-15)
(2634.96 -1.86552 1.85727e-15)
(2634.99 -1.8645 -3.00353e-15)
(2636.5 -1.71213 -4.32822e-15)
(2634.83 -1.75619 -1.86231e-15)
(2634.93 -1.78168 4.67723e-17)
(2634.93 -1.80893 1.2961e-17)
(2634.93 -1.83702 -2.86231e-15)
(2634.93 -1.86599 2.15585e-15)
(2634.96 -1.86497 6.07569e-15)
(2636.47 -1.63003 -2.69638e-15)
(2634.8 -1.67091 4.86433e-15)
(2634.89 -1.69534 -1.19951e-16)
(2634.89 -1.72141 6.00815e-15)
(2634.89 -1.74827 -5.01262e-15)
(2634.9 -1.77598 4.35257e-15)
(2634.92 -1.77503 -9.37852e-15)
(2636.42 -1.31532 -3.22836e-19)
(2634.75 -1.34732 4.87929e-15)
(2634.84 -1.367 -1.19391e-16)
(2634.84 -1.38802 -1.36029e-17)
(2634.84 -1.40968 5.00925e-15)
(2634.84 -1.43202 8.73387e-16)
(2634.87 -1.43127 5.31567e-15)
(2636.39 -1.07251 1.14648e-17)
(2634.72 -1.16913 8.82026e-18)
(2634.8 -1.15349 -1.54966e-17)
(2634.8 -1.17219 -1.69563e-17)
(2634.8 -1.19053 -6.79186e-19)
(2634.8 -1.20946 2.20579e-18)
(2634.83 -1.20884 -3.88079e-15)
(2636.36 -1.00171 9.50587e-15)
(2634.68 -1.04691 -2.54332e-16)
(2634.77 -1.06221 -9.80861e-15)
(2634.77 -1.07877 -3.96587e-15)
(2634.77 -1.09584 5.08426e-15)
(2634.8 -1.0953 -2.79324e-18)
(2636.36 -1.02613 -3.4047e-15)
(2634.69 -1.04822 9.51896e-17)
(2634.78 -1.06379 -4.83511e-15)
(2634.78 -1.08021 5.03316e-15)
(2634.78 -1.09713 9.0497e-15)
(2634.8 -1.09661 8.38201e-19)
(2636.34 -1.1326 -4.63297e-15)
(2634.67 -1.17854 1.2464e-16)
(2634.76 -1.19545 1.49853e-18)
(2634.76 -1.21399 8.97455e-15)
(2634.76 -1.23309 9.80248e-15)
(2634.79 -1.2325 1.04171e-15)
(2636.31 -0.0481975 -1.02423e-16)
(2634.66 -1.44339 1.74859e-18)
(2634.75 -1.41342 -1.86901e-20)
(2634.74 -1.43599 5.94155e-15)
(2634.74 -1.45821 -1.49367e-16)
(2634.74 -1.48115 2.32069e-18)
(2634.77 -1.48048 -5.10723e-15)
)
;

boundaryField
{
    inlet
    {
        type            calculated;
        value           nonuniform List<vector> 0();
    }
    outlet2
    {
        type            calculated;
        value           uniform (0 0 0);
    }
    outlet1
    {
        type            calculated;
        value           uniform (0 0 0);
    }
    wall
    {
        type            calculated;
        value           uniform (0 0 0);
    }
    symmetryBottom
    {
        type            symmetry;
    }
    symmetryZ0
    {
        type            symmetry;
    }
    symmetryZ05
    {
        type            symmetry;
    }
    procBoundary0to1
    {
        type            processor;
        value           uniform (0 0 0);
    }
}


// ************************************************************************* //
