/*--------------------------------*- C++ -*----------------------------------*\
| =========                 |                                                 |
| \\      /  F ield         | OpenFOAM: The Open Source CFD Toolbox           |
|  \\    /   O peration     | Version:  2412                                  |
|   \\  /    A nd           | Website:  www.openfoam.com                      |
|    \\/     M anipulation  |                                                 |
\*---------------------------------------------------------------------------*/
FoamFile
{
    version     2.0;
    format      ascii;
    arch        "LSB;label=32;scalar=64";
    class       volScalarField;
    location    "3.3e-06";
    object      E;
}
// * * * * * * * * * * * * * * * * * * * * * * * * * * * * * * * * * * * * * //

dimensions      [0 0 0 0 0 0 0];

internalField   nonuniform List<scalar> 
84
(
99.4332
53.152
58.8798
99.4436
53.1676
58.8937
99.4409
53.1657
58.8918
99.4409
53.1657
58.8918
99.4409
53.1657
58.8918
99.4409
53.1657
58.8918
99.4409
53.1657
58.8918
99.4409
53.1657
58.8918
99.4409
53.1657
58.8918
99.4409
53.1657
58.8918
99.4409
53.1657
58.8918
99.4411
53.162
58.889
81.4531
80.1499
80.4535
83.9863
82.5686
82.8833
83.7245
82.3186
82.6307
83.4635
82.0692
82.1492
80.0505
83.203
81.8204
81.8962
82.1593
82.9441
81.5732
81.6449
81.9074
82.6912
81.3315
81.3991
81.661
82.4423
81.0935
81.1572
81.4177
82.2169
80.8769
80.937
80.9476
80.1104
81.8897
80.5674
80.6222
80.6282
80.8897
81.649
80.3369
80.3879
80.3909
80.6903
81.4003
80.0991
80.1462
80.4049
)
;

boundaryField
{
    inlet
    {
        type            calculated;
        value           uniform 0;
    }
    outlet2
    {
        type            calculated;
        value           uniform 0;
    }
    outlet1
    {
        type            calculated;
        value           nonuniform List<scalar> 0();
    }
    wall
    {
        type            calculated;
        value           uniform 0;
    }
    symmetryBottom
    {
        type            symmetry;
    }
    symmetryZ0
    {
        type            symmetry;
    }
    symmetryZ05
    {
        type            symmetry;
    }
    procBoundary1to0
    {
        type            processor;
        value           uniform 0;
    }
}


// ************************************************************************* //
