/*--------------------------------*- C++ -*----------------------------------*\
| =========                 |                                                 |
| \\      /  F ield         | OpenFOAM: The Open Source CFD Toolbox           |
|  \\    /   O peration     | Version:  2412                                  |
|   \\  /    A nd           | Website:  www.openfoam.com                      |
|    \\/     M anipulation  |                                                 |
\*---------------------------------------------------------------------------*/
FoamFile
{
    version     2.0;
    format      ascii;
    arch        "LSB;label=32;scalar=64";
    class       volScalarField;
    location    "3.3e-06";
    object      T;
}
// * * * * * * * * * * * * * * * * * * * * * * * * * * * * * * * * * * * * * //

dimensions      [0 0 0 0 0 0 0];

internalField   nonuniform List<scalar> 
84
(
200.004
199.865
200.03
199.99
199.837
200.006
199.987
199.833
200.002
199.987
199.833
200.002
199.987
199.833
200.002
199.987
199.833
200.002
199.987
199.833
200.002
199.987
199.833
200.002
199.987
199.833
200.002
199.987
199.833
200.002
199.987
199.833
200.002
199.987
199.824
199.996
202.03
201.962
201.965
200.01
199.998
199.999
200.01
199.998
199.999
200.01
199.998
199.999
200.008
200.012
199.999
200.001
200.001
200.366
200.342
200.348
200.348
201.819
201.755
201.784
201.782
203.186
203.083
203.133
203.13
208.648
208.373
208.514
208.643
199.567
196.605
196.681
196.629
196.579
196.51
199.199
199.209
199.198
199.186
199.219
199.67
199.668
199.664
199.664
)
;

boundaryField
{
    inlet
    {
        type            calculated;
        value           uniform 0;
    }
    outlet2
    {
        type            calculated;
        value           uniform 0;
    }
    outlet1
    {
        type            calculated;
        value           nonuniform List<scalar> 0();
    }
    wall
    {
        type            calculated;
        value           uniform 0;
    }
    symmetryBottom
    {
        type            symmetry;
    }
    symmetryZ0
    {
        type            symmetry;
    }
    symmetryZ05
    {
        type            symmetry;
    }
    procBoundary1to0
    {
        type            processor;
        value           uniform 0;
    }
}


// ************************************************************************* //
