/*--------------------------------*- C++ -*----------------------------------*\
| =========                 |                                                 |
| \\      /  F ield         | OpenFOAM: The Open Source CFD Toolbox           |
|  \\    /   O peration     | Version:  2412                                  |
|   \\  /    A nd           | Website:  www.openfoam.com                      |
|    \\/     M anipulation  |                                                 |
\*---------------------------------------------------------------------------*/
FoamFile
{
    version     2.0;
    format      ascii;
    arch        "LSB;label=32;scalar=64";
    class       volScalarField;
    location    "2e-06";
    object      E_dof0;
}
// * * * * * * * * * * * * * * * * * * * * * * * * * * * * * * * * * * * * * //

dimensions      [0 0 0 0 0 0 0];

internalField   nonuniform List<scalar> 
84
(
99.2606
86.8897
87.2823
87.2751
87.2759
87.2767
87.2775
87.4641
101.117
88.5496
88.9736
88.9919
89.0191
89.0471
89.076
89.2653
100.87
88.4269
88.7984
88.8159
88.8403
88.8655
88.8914
89.0805
100.714
88.2305
88.6481
88.6618
88.6842
88.7073
88.8961
100.571
88.0573
88.4726
88.4835
88.5032
88.5233
88.7119
100.381
87.8863
88.2983
88.3066
88.3234
88.3407
88.529
100.194
87.7192
88.1279
88.1335
88.1476
88.1621
88.3501
99.9789
87.5804
87.9585
87.9626
87.974
87.9856
88.1734
99.8267
87.4139
87.8164
87.8174
87.8266
88.0141
99.6057
87.1912
87.59
87.5875
87.5931
87.7803
99.4117
87.0302
87.4254
87.4202
87.4232
87.6101
99.0393
86.877
87.2525
87.2453
87.2455
87.2457
87.4323
)
;

boundaryField
{
    inlet
    {
        type            calculated;
        value           nonuniform List<scalar> 0();
    }
    outlet2
    {
        type            calculated;
        value           uniform 99.4306;
    }
    outlet1
    {
        type            calculated;
        value           uniform 99.4306;
    }
    wall
    {
        type            calculated;
        value           uniform 99.4306;
    }
    symmetryBottom
    {
        type            symmetry;
    }
    symmetryZ0
    {
        type            symmetry;
    }
    symmetryZ05
    {
        type            symmetry;
    }
    procBoundary0to1
    {
        type            processor;
        value           uniform 99.4306;
    }
}


// ************************************************************************* //
