/*--------------------------------*- C++ -*----------------------------------*\
| =========                 |                                                 |
| \\      /  F ield         | OpenFOAM: The Open Source CFD Toolbox           |
|  \\    /   O peration     | Version:  2412                                  |
|   \\  /    A nd           | Website:  www.openfoam.com                      |
|    \\/     M anipulation  |                                                 |
\*---------------------------------------------------------------------------*/
FoamFile
{
    version     2.0;
    format      ascii;
    arch        "LSB;label=32;scalar=64";
    class       volVectorField;
    location    "2e-06";
    object      rhoU;
}
// * * * * * * * * * * * * * * * * * * * * * * * * * * * * * * * * * * * * * //

dimensions      [0 0 0 0 0 0 0];

internalField   nonuniform List<vector> 
84
(
(0.073983 5.91097e-05 6.20817e-20)
(0.0648124 5.27802e-05 -6.27876e-20)
(0.0651018 5.37779e-05 -1.44054e-19)
(0.0650965 5.45757e-05 6.6088e-20)
(0.0650972 5.54022e-05 -1.61625e-21)
(0.0650978 5.62539e-05 7.95574e-21)
(0.0650984 5.71323e-05 1.35414e-19)
(0.0652368 5.72224e-05 2.85169e-20)
(0.0753558 -6.02313e-05 6.29015e-20)
(0.0660409 -5.42105e-05 -6.02252e-20)
(0.0663535 -5.52245e-05 -1.75007e-19)
(0.0663671 -5.60684e-05 7.47969e-21)
(0.0663873 -5.69421e-05 -3.07191e-19)
(0.0664081 -5.78435e-05 4.18277e-20)
(0.0664295 -5.87738e-05 2.5306e-19)
(0.0665699 -5.88588e-05 5.82332e-20)
(0.0751733 -5.80163e-05 -2.80449e-19)
(0.0659497 -5.57765e-05 4.07451e-20)
(0.0662236 -5.50671e-05 8.95796e-20)
(0.0662366 -5.59707e-05 -3.8068e-21)
(0.0662548 -5.68401e-05 -1.98362e-21)
(0.0662734 -5.77382e-05 1.25795e-19)
(0.0662927 -5.86652e-05 -9.88192e-20)
(0.0664328 -5.87501e-05 -1.34185e-19)
(0.0750577 -5.92304e-05 -2.82482e-19)
(0.0658043 -5.48648e-05 1.28491e-19)
(0.0661122 -5.58739e-05 -4.93047e-21)
(0.0661224 -5.67382e-05 -2.81603e-19)
(0.066139 -5.76332e-05 2.59968e-19)
(0.0661561 -5.85568e-05 5.7709e-20)
(0.0662961 -5.86416e-05 -9.65061e-20)
(0.0749516 -6.08336e-05 -1.53247e-19)
(0.0656758 -5.47393e-05 -5.63496e-20)
(0.065982 -5.57798e-05 1.84374e-21)
(0.0659902 -5.66407e-05 5.27767e-22)
(0.0660048 -5.75326e-05 -8.98846e-20)
(0.0660197 -5.84531e-05 6.90589e-20)
(0.0661595 -5.85378e-05 1.89847e-19)
(0.0748091 -5.78855e-05 -9.66402e-20)
(0.065548 -5.20464e-05 1.5566e-19)
(0.0658517 -5.30417e-05 -4.80588e-21)
(0.0658579 -5.38639e-05 1.87593e-19)
(0.0658704 -5.47159e-05 -1.63488e-19)
(0.0658831 -5.55952e-05 1.36949e-19)
(0.0660227 -5.56764e-05 -2.99605e-19)
(0.074666 -4.66128e-05 -1.39922e-23)
(0.0654198 -4.18825e-05 1.5173e-19)
(0.065721 -4.26804e-05 -4.76541e-21)
(0.0657252 -4.33407e-05 -3.90917e-22)
(0.0657355 -4.40247e-05 1.56934e-19)
(0.0657462 -4.47306e-05 2.60187e-20)
(0.0658855 -4.47966e-05 1.65713e-19)
(0.0745018 -3.76002e-05 6.11538e-22)
(0.0653123 -3.66321e-05 4.08807e-22)
(0.0655909 -3.59535e-05 -4.9369e-22)
(0.0655938 -3.65609e-05 -6.53354e-22)
(0.0656021 -3.71381e-05 -6.63281e-23)
(0.0656106 -3.77348e-05 1.37635e-22)
(0.0657498 -3.7791e-05 -1.22934e-19)
(0.074369 -3.51367e-05 3.37786e-19)
(0.0651701 -3.23975e-05 -1.02291e-20)
(0.0654663 -3.30075e-05 -3.07907e-19)
(0.0654666 -3.35227e-05 -1.20618e-19)
(0.065473 -3.40566e-05 1.61773e-19)
(0.0656119 -3.4108e-05 -8.89162e-23)
(0.0742508 -3.60521e-05 -1.19977e-19)
(0.0650464 -3.22965e-05 3.75092e-21)
(0.0653407 -3.29183e-05 -1.54229e-19)
(0.0653391 -3.34246e-05 1.60049e-19)
(0.0653435 -3.39495e-05 2.79866e-19)
(0.0654823 -3.40014e-05 -5.86109e-21)
(0.0740962 -3.95468e-05 -1.62762e-19)
(0.0649176 -3.6294e-05 4.9725e-21)
(0.0652089 -3.69582e-05 2.84091e-23)
(0.0652052 -3.75294e-05 2.78404e-19)
(0.0652075 -3.81207e-05 3.01223e-19)
(0.0653461 -3.81789e-05 2.64758e-20)
(0.0738165 -2.09788e-06 -4.49063e-21)
(0.0648019 -4.47767e-05 8.86035e-23)
(0.0650787 -4.35831e-05 -1.23981e-24)
(0.0650734 -4.42951e-05 1.82831e-19)
(0.0650736 -4.49796e-05 -5.87103e-21)
(0.0650737 -4.56865e-05 1.17191e-22)
(0.0652121 -4.57575e-05 -1.60642e-19)
)
;

boundaryField
{
    inlet
    {
        type            calculated;
        value           nonuniform List<vector> 0();
    }
    outlet2
    {
        type            calculated;
        value           uniform (0 0 0);
    }
    outlet1
    {
        type            calculated;
        value           uniform (0 0 0);
    }
    wall
    {
        type            calculated;
        value           uniform (0 0 0);
    }
    symmetryBottom
    {
        type            symmetry;
    }
    symmetryZ0
    {
        type            symmetry;
    }
    symmetryZ05
    {
        type            symmetry;
    }
    procBoundary0to1
    {
        type            processor;
        value           uniform (0 0 0);
    }
}


// ************************************************************************* //
