/*--------------------------------*- C++ -*----------------------------------*\
| =========                 |                                                 |
| \\      /  F ield         | OpenFOAM: The Open Source CFD Toolbox           |
|  \\    /   O peration     | Version:  2412                                  |
|   \\  /    A nd           | Website:  www.openfoam.com                      |
|    \\/     M anipulation  |                                                 |
\*---------------------------------------------------------------------------*/
FoamFile
{
    version     2.0;
    format      ascii;
    arch        "LSB;label=32;scalar=64";
    class       volVectorField;
    location    "2e-06";
    object      U;
}
// * * * * * * * * * * * * * * * * * * * * * * * * * * * * * * * * * * * * * //

dimensions      [0 0 0 0 0 0 0];

internalField   nonuniform List<vector> 
84
(
(2635.92 2.106 2.21189e-15)
(2633.81 2.14485 -2.55153e-15)
(2633.95 2.17579 -5.82825e-15)
(2633.93 2.20824 2.67405e-15)
(2633.93 2.24165 -6.53958e-17)
(2633.92 2.27609 3.21897e-16)
(2633.92 2.3116 5.47893e-15)
(2633.95 2.31037 1.15138e-15)
(2636.59 -2.10741 2.20084e-15)
(2634.5 -2.16257 -2.40251e-15)
(2634.65 -2.19276 -6.94887e-15)
(2634.65 -2.22581 2.9693e-16)
(2634.66 -2.25981 -1.21912e-14)
(2634.66 -2.29487 1.65946e-15)
(2634.67 -2.33103 1.00366e-14)
(2634.7 -2.32951 2.30475e-15)
(2636.55 -2.0348 -9.83619e-15)
(2634.49 -2.2281 1.62764e-15)
(2634.62 -2.19077 3.56381e-15)
(2634.62 -2.22628 -1.51419e-16)
(2634.62 -2.26025 -7.88789e-17)
(2634.63 -2.29532 5.00084e-15)
(2634.63 -2.3315 -3.92732e-15)
(2634.67 -2.32998 -5.32167e-15)
(2636.52 -2.08056 -9.92264e-15)
(2634.45 -2.19649 5.14407e-15)
(2634.59 -2.2266 -1.96481e-16)
(2634.59 -2.26069 -1.12202e-14)
(2634.6 -2.29578 1.03556e-14)
(2634.6 -2.33197 2.29821e-15)
(2634.64 -2.33044 -3.83519e-15)
(2636.51 -2.13989 -5.39065e-15)
(2634.42 -2.19573 -2.26032e-15)
(2634.56 -2.2272 7.36176e-17)
(2634.56 -2.2613 2.10703e-17)
(2634.56 -2.2964 -3.58772e-15)
(2634.57 -2.33262 2.75585e-15)
(2634.6 -2.33109 7.56011e-15)
(2636.47 -2.04004 -3.40585e-15)
(2634.37 -2.09175 6.25596e-15)
(2634.52 -2.12203 -1.92268e-16)
(2634.52 -2.15472 7.5043e-15)
(2634.52 -2.18839 -6.53877e-15)
(2634.52 -2.22313 5.47631e-15)
(2634.56 -2.2217 -1.19554e-14)
(2636.41 -1.64587 -4.94055e-19)
(2634.31 -1.68651 6.1098e-15)
(2634.45 -1.71086 -1.91023e-16)
(2634.45 -1.73722 -1.5669e-17)
(2634.45 -1.76436 6.28937e-15)
(2634.45 -1.79236 1.04257e-15)
(2634.49 -1.79123 6.62618e-15)
(2636.36 -1.33054 2.16402e-17)
(2634.27 -1.4775 1.64886e-17)
(2634.4 -1.44404 -1.98286e-17)
(2634.4 -1.46837 -2.62402e-17)
(2634.4 -1.49136 -2.66356e-18)
(2634.4 -1.51513 5.52632e-18)
(2634.44 -1.5142 -4.92567e-15)
(2636.33 -1.24557 1.19743e-14)
(2634.22 -1.30953 -4.13466e-16)
(2634.36 -1.32822 -1.23902e-14)
(2634.36 -1.34894 -4.85364e-15)
(2634.36 -1.37029 6.50905e-15)
(2634.39 -1.36948 -3.57009e-18)
(2636.33 -1.28006 -4.25988e-15)
(2634.24 -1.30794 1.51904e-16)
(2634.38 -1.32718 -6.21816e-15)
(2634.37 -1.34763 6.45295e-15)
(2634.38 -1.3687 1.1283e-14)
(2634.41 -1.36791 -2.35797e-16)
(2636.31 -1.40706 -5.79099e-15)
(2634.21 -1.47273 2.01773e-16)
(2634.36 -1.49307 1.14769e-18)
(2634.35 -1.51622 1.12478e-14)
(2634.35 -1.54006 1.21693e-14)
(2634.39 -1.53916 1.06736e-15)
(2636.27 -0.0749235 -1.60378e-16)
(2634.2 -1.82017 3.60173e-18)
(2634.34 -1.76421 -5.01865e-20)
(2634.33 -1.79318 7.40144e-15)
(2634.33 -1.82088 -2.37673e-16)
(2634.33 -1.84949 4.74416e-18)
(2634.37 -1.84846 -6.48943e-15)
)
;

boundaryField
{
    inlet
    {
        type            calculated;
        value           nonuniform List<vector> 0();
    }
    outlet2
    {
        type            calculated;
        value           uniform (0 0 0);
    }
    outlet1
    {
        type            calculated;
        value           uniform (0 0 0);
    }
    wall
    {
        type            calculated;
        value           uniform (0 0 0);
    }
    symmetryBottom
    {
        type            symmetry;
    }
    symmetryZ0
    {
        type            symmetry;
    }
    symmetryZ05
    {
        type            symmetry;
    }
    procBoundary0to1
    {
        type            processor;
        value           uniform (0 0 0);
    }
}


// ************************************************************************* //
