/*--------------------------------*- C++ -*----------------------------------*\
| =========                 |                                                 |
| \\      /  F ield         | OpenFOAM: The Open Source CFD Toolbox           |
|  \\    /   O peration     | Version:  2412                                  |
|   \\  /    A nd           | Website:  www.openfoam.com                      |
|    \\/     M anipulation  |                                                 |
\*---------------------------------------------------------------------------*/
FoamFile
{
    version     2.0;
    format      ascii;
    arch        "LSB;label=32;scalar=64";
    class       volScalarField;
    location    "1.16035e-06";
    object      E;
}
// * * * * * * * * * * * * * * * * * * * * * * * * * * * * * * * * * * * * * //

dimensions      [0 0 0 0 0 0 0];

internalField   nonuniform List<scalar> 
625
(
101.598
82.4934
82.4934
101.601
82.4963
82.4963
101.598
82.4935
82.4935
101.598
82.4935
82.4935
101.598
82.4935
82.4935
101.598
82.4935
82.4935
101.598
82.4935
82.4935
101.598
82.4935
82.4935
101.598
82.4935
82.4935
101.598
82.4935
82.4935
101.598
82.4935
82.4935
101.598
82.4935
82.4935
101.598
82.4935
82.4935
101.598
82.4935
82.4935
101.598
82.4935
82.4935
101.598
82.4935
82.4935
101.598
82.4935
82.4935
101.598
82.4935
82.4935
101.598
82.4935
82.4935
101.598
82.4935
82.4935
101.598
82.4935
82.4935
101.598
82.4935
82.4935
101.598
82.4935
82.4935
101.598
82.4935
82.4936
101.599
82.4895
82.4896
85.1514
85.15
85.1487
85.1474
85.146
85.1446
85.1432
85.1418
85.1404
85.139
85.1375
85.1361
85.1346
85.1331
85.1316
85.1301
85.1286
85.1271
85.1255
85.124
85.1224
85.2251
87.5385
87.5537
87.5691
87.5848
87.6007
87.6168
87.6331
87.6497
87.6666
87.6837
87.701
87.7187
87.7365
87.7547
87.7732
87.7919
87.811
87.8303
87.85
87.87
87.8903
87.9963
87.4101
87.4241
87.4384
87.4528
87.4675
87.4823
87.4974
87.5127
87.5283
87.544
87.56
87.5763
87.5928
87.6095
87.6265
87.6438
87.6613
87.6791
87.6972
87.7156
87.7342
87.84
87.3182
87.3316
87.3452
87.359
87.373
87.3871
87.4015
87.4161
87.4309
87.446
87.4612
87.4767
87.4925
87.5084
87.5246
87.5411
87.5578
87.5748
87.592
87.6096
87.6274
87.733
87.2264
87.2392
87.2521
87.2652
87.2785
87.292
87.3057
87.3196
87.3337
87.348
87.3626
87.3773
87.3923
87.4075
87.4229
87.4386
87.4545
87.4706
87.4871
87.5037
87.5207
87.6262
87.1347
87.1468
87.1591
87.1716
87.1842
87.197
87.21
87.2232
87.2366
87.2502
87.264
87.278
87.2922
87.3066
87.3213
87.3361
87.3512
87.3666
87.3822
87.398
87.4141
87.5195
87.0431
87.0546
87.0662
87.078
87.09
87.1021
87.1144
87.1269
87.1396
87.1525
87.1655
87.1788
87.1922
87.2059
87.2197
87.2338
87.2481
87.2626
87.2774
87.2924
87.3076
87.4129
86.9516
86.9624
86.9734
86.9845
86.9958
87.0073
87.0189
87.0307
87.0427
87.0548
87.0671
87.0796
87.0923
87.1052
87.1183
87.1316
87.1451
87.1588
87.1727
87.1869
87.2013
87.3065
86.8602
86.8703
86.8807
86.8911
86.9018
86.9125
86.9235
86.9346
86.9458
86.9572
86.9688
86.9806
86.9925
87.0047
87.017
87.0295
87.0422
87.0551
87.0682
87.0815
87.095
87.2001
86.7688
86.7784
86.788
86.7978
86.8078
86.8179
86.8281
86.8385
86.8491
86.8598
86.8706
86.8817
86.8929
86.9042
86.9158
86.9275
86.9394
86.9515
86.9637
86.9762
86.9889
87.0939
86.6778
86.6867
86.6957
86.7049
86.7141
86.7236
86.7331
86.7428
86.7527
86.7626
86.7728
86.7831
86.7935
86.8041
86.8149
86.8258
86.8369
86.8482
86.8597
86.8713
86.8831
86.988
86.5868
86.5951
86.6034
86.6119
86.6206
86.6293
86.6382
86.6472
86.6563
86.6656
86.675
86.6846
86.6943
86.7041
86.7141
86.7243
86.7346
86.745
86.7557
86.7665
86.7775
86.8822
86.4959
86.5035
86.5113
86.5191
86.5271
86.5352
86.5434
86.5517
86.5601
86.5687
86.5774
86.5862
86.5951
86.6042
86.6134
86.6228
86.6323
86.642
86.6518
86.6618
86.6719
86.7765
86.4051
86.4121
86.4192
86.4264
86.4337
86.4411
86.4486
86.4562
86.464
86.4718
86.4798
86.4879
86.4961
86.5044
86.5129
86.5215
86.5302
86.539
86.5481
86.5572
86.5665
86.671
86.3144
86.3208
86.3272
86.3338
86.3404
86.3471
86.354
86.3609
86.3679
86.3751
86.3823
86.3897
86.3971
86.4047
86.4124
86.4202
86.4282
86.4362
86.4444
86.4527
86.4612
86.5656
86.2238
86.2295
86.2353
86.2412
86.2472
86.2533
86.2594
86.2657
86.272
86.2784
86.2849
86.2916
86.2983
86.3051
86.3121
86.3191
86.3262
86.3335
86.3409
86.3484
86.356
86.4603
86.1332
86.1383
86.1435
86.1487
86.1541
86.1595
86.1649
86.1705
86.1761
86.1819
86.1877
86.1936
86.1996
86.2056
86.2118
86.2181
86.2244
86.2309
86.2375
86.2441
86.2509
86.3551
86.0428
86.0472
86.0518
86.0564
86.061
86.0658
86.0706
86.0754
86.0804
86.0854
86.0905
86.0957
86.1009
86.1062
86.1117
86.1171
86.1227
86.1284
86.1342
86.14
86.1459
86.25
85.9524
85.9562
85.9601
85.9641
85.9681
85.9722
85.9763
85.9805
85.9847
85.9891
85.9934
85.9979
86.0024
86.007
86.0116
86.0163
86.0211
86.026
86.031
86.036
86.0411
86.145
85.8621
85.8653
85.8686
85.8719
85.8753
85.8787
85.8821
85.8856
85.8892
85.8928
85.8965
85.9002
85.904
85.9078
85.9117
85.9156
85.9197
85.9237
85.9279
85.9321
85.9364
86.0402
85.7719
85.7745
85.7771
85.7798
85.7825
85.7853
85.788
85.7909
85.7937
85.7966
85.7996
85.8026
85.8056
85.8087
85.8119
85.815
85.8183
85.8216
85.8249
85.8283
85.8317
85.9354
85.6818
85.6838
85.6858
85.6878
85.6898
85.6919
85.694
85.6962
85.6984
85.7006
85.7028
85.7051
85.7074
85.7097
85.7121
85.7146
85.717
85.7195
85.722
85.7246
85.7272
85.8308
85.5918
85.5931
85.5945
85.5959
85.5973
85.5987
85.6001
85.6016
85.6031
85.6046
85.6061
85.6077
85.6093
85.6109
85.6125
85.6142
85.6159
85.6176
85.6193
85.6211
85.6229
85.7263
85.5019
85.5026
85.5033
85.5041
85.5048
85.5056
85.5064
85.5071
85.5079
85.5088
85.5096
85.5104
85.5113
85.5121
85.513
85.5139
85.5148
85.5157
85.5167
85.5176
85.5186
85.6219
85.4084
85.4084
85.4085
85.4086
85.4087
85.4087
85.4088
85.4089
85.409
85.4091
85.4092
85.4093
85.4094
85.4095
85.4096
85.4097
85.4098
85.4099
85.41
85.4101
85.4102
85.5136
)
;

boundaryField
{
    inlet
    {
        type            calculated;
        value           uniform 0;
    }
    outlet2
    {
        type            calculated;
        value           uniform 0;
    }
    outlet1
    {
        type            calculated;
        value           uniform 0;
    }
    wall
    {
        type            calculated;
        value           uniform 0;
    }
    symmetryBottom
    {
        type            symmetry;
    }
    symmetryZ0
    {
        type            symmetry;
    }
    symmetryZ05
    {
        type            symmetry;
    }
}


// ************************************************************************* //
