/*--------------------------------*- C++ -*----------------------------------*\
| =========                 |                                                 |
| \\      /  F ield         | OpenFOAM: The Open Source CFD Toolbox           |
|  \\    /   O peration     | Version:  2412                                  |
|   \\  /    A nd           | Website:  www.openfoam.com                      |
|    \\/     M anipulation  |                                                 |
\*---------------------------------------------------------------------------*/
FoamFile
{
    version     2.0;
    format      ascii;
    arch        "LSB;label=32;scalar=64";
    class       volScalarField;
    location    "1.16035e-06";
    object      E_dof3;
}
// * * * * * * * * * * * * * * * * * * * * * * * * * * * * * * * * * * * * * //

dimensions      [0 0 0 0 0 0 0];

internalField   nonuniform List<scalar> 
625
(
0.889955
0.775245
0.652865
0.88998
0.775268
0.652885
0.88998
0.775268
0.652885
0.88998
0.775268
0.652885
0.88998
0.775268
0.652885
0.88998
0.775268
0.652885
0.88998
0.775268
0.652885
0.88998
0.775268
0.652885
0.88998
0.775268
0.652885
0.88998
0.775268
0.652885
0.88998
0.775268
0.652885
0.88998
0.775268
0.652885
0.88998
0.775268
0.652885
0.88998
0.775268
0.652885
0.88998
0.775268
0.652885
0.88998
0.775268
0.652885
0.88998
0.775268
0.652885
0.88998
0.775268
0.652885
0.88998
0.775268
0.652885
0.88998
0.775268
0.652885
0.88998
0.775268
0.652885
0.88998
0.775268
0.652885
0.88998
0.775268
0.652883
0.889981
0.775269
0.651888
0.890203
0.775437
0.773952
0.800046
0.80004
0.800033
0.800027
0.80002
0.800013
0.800007
0.8
0.799993
0.799986
0.799979
0.799971
0.799964
0.799956
0.799949
0.799941
0.799933
0.799925
0.799917
0.799909
0.7999
0.825872
0.821509
0.821652
0.821798
0.821946
0.822096
0.822248
0.822402
0.822558
0.822717
0.822878
0.823042
0.823208
0.823377
0.823548
0.823721
0.823898
0.824077
0.824259
0.824444
0.824632
0.824823
0.851834
0.82073
0.820869
0.821009
0.821151
0.821295
0.821441
0.82159
0.82174
0.821893
0.822048
0.822205
0.822365
0.822527
0.822692
0.822859
0.823028
0.823201
0.823376
0.823554
0.823734
0.823918
0.850873
0.819954
0.820086
0.820221
0.820357
0.820496
0.820636
0.820779
0.820923
0.82107
0.821219
0.82137
0.821523
0.821679
0.821837
0.821997
0.82216
0.822326
0.822494
0.822665
0.822838
0.823014
0.849927
0.819177
0.819305
0.819434
0.819564
0.819697
0.819832
0.819968
0.820107
0.820248
0.82039
0.820535
0.820682
0.820831
0.820983
0.821137
0.821293
0.821452
0.821613
0.821776
0.821943
0.822112
0.848981
0.818402
0.818524
0.818647
0.818772
0.818899
0.819028
0.819159
0.819291
0.819426
0.819562
0.819701
0.819842
0.819985
0.82013
0.820277
0.820426
0.820578
0.820732
0.820889
0.821048
0.82121
0.848036
0.817627
0.817743
0.817861
0.817981
0.818102
0.818225
0.81835
0.818477
0.818605
0.818735
0.818868
0.819002
0.819139
0.819277
0.819418
0.819561
0.819706
0.819853
0.820003
0.820155
0.820309
0.847092
0.816853
0.816963
0.817076
0.81719
0.817305
0.817423
0.817542
0.817662
0.817785
0.817909
0.818035
0.818163
0.818293
0.818425
0.818559
0.818696
0.818834
0.818974
0.819117
0.819262
0.819409
0.846149
0.816079
0.816184
0.816291
0.816399
0.816509
0.816621
0.816734
0.816849
0.816965
0.817084
0.817204
0.817325
0.817449
0.817574
0.817702
0.817831
0.817963
0.818096
0.818232
0.81837
0.81851
0.845207
0.815305
0.815405
0.815507
0.81561
0.815714
0.81582
0.815927
0.816036
0.816146
0.816258
0.816372
0.816488
0.816605
0.816724
0.816845
0.816968
0.817092
0.817219
0.817347
0.817478
0.817611
0.844266
0.814521
0.814616
0.814711
0.814809
0.814907
0.815007
0.815109
0.815211
0.815316
0.815422
0.815529
0.815638
0.815749
0.815862
0.815976
0.816092
0.81621
0.816329
0.816451
0.816574
0.8167
0.843314
0.813737
0.813826
0.813917
0.814008
0.814101
0.814195
0.814291
0.814388
0.814486
0.814586
0.814687
0.81479
0.814894
0.815
0.815108
0.815217
0.815328
0.81544
0.815555
0.815671
0.815789
0.842362
0.812954
0.813038
0.813123
0.813208
0.813296
0.813384
0.813474
0.813564
0.813657
0.81375
0.813845
0.813942
0.81404
0.814139
0.81424
0.814342
0.814447
0.814552
0.81466
0.814769
0.81488
0.841411
0.812172
0.81225
0.812329
0.812409
0.812491
0.812573
0.812657
0.812742
0.812828
0.812916
0.813005
0.813095
0.813186
0.813279
0.813373
0.813469
0.813566
0.813665
0.813765
0.813867
0.813971
0.840462
0.81139
0.811463
0.811536
0.811611
0.811687
0.811763
0.811841
0.81192
0.812001
0.812082
0.812164
0.812248
0.812333
0.81242
0.812507
0.812596
0.812687
0.812779
0.812872
0.812967
0.813063
0.839513
0.810609
0.810676
0.810744
0.810813
0.810883
0.810954
0.811026
0.811099
0.811173
0.811249
0.811325
0.811403
0.811481
0.811561
0.811642
0.811724
0.811808
0.811893
0.811979
0.812067
0.812156
0.838565
0.809829
0.80989
0.809953
0.810016
0.810081
0.810146
0.810212
0.810279
0.810347
0.810416
0.810486
0.810558
0.81063
0.810703
0.810778
0.810853
0.81093
0.811008
0.811087
0.811168
0.81125
0.837618
0.809049
0.809105
0.809162
0.80922
0.809279
0.809338
0.809398
0.809459
0.809522
0.809585
0.809649
0.809713
0.809779
0.809846
0.809914
0.809983
0.810053
0.810124
0.810197
0.81027
0.810345
0.836672
0.80827
0.80832
0.808372
0.808424
0.808477
0.808531
0.808585
0.808641
0.808697
0.808754
0.808811
0.80887
0.80893
0.80899
0.809051
0.809114
0.809177
0.809241
0.809306
0.809373
0.80944
0.835727
0.807491
0.807537
0.807582
0.807629
0.807676
0.807724
0.807773
0.807822
0.807873
0.807923
0.807975
0.808027
0.80808
0.808134
0.808189
0.808245
0.808301
0.808359
0.808417
0.808476
0.808537
0.834782
0.806713
0.806753
0.806794
0.806835
0.806876
0.806919
0.806961
0.807005
0.807049
0.807094
0.807139
0.807185
0.807232
0.80728
0.807328
0.807377
0.807427
0.807477
0.807529
0.807581
0.807634
0.833839
0.805936
0.80597
0.806005
0.806041
0.806077
0.806114
0.806151
0.806188
0.806226
0.806265
0.806304
0.806344
0.806385
0.806426
0.806468
0.80651
0.806553
0.806597
0.806641
0.806686
0.806732
0.832897
0.805159
0.805188
0.805218
0.805248
0.805278
0.805309
0.80534
0.805372
0.805404
0.805437
0.80547
0.805504
0.805538
0.805573
0.805608
0.805644
0.80568
0.805717
0.805754
0.805792
0.805831
0.831955
0.804384
0.804408
0.804432
0.804456
0.804481
0.804506
0.804531
0.804557
0.804584
0.80461
0.804637
0.804665
0.804693
0.804721
0.80475
0.804779
0.804808
0.804838
0.804869
0.8049
0.804932
0.831015
0.80379
0.80381
0.80383
0.80385
0.80387
0.803891
0.803912
0.803934
0.803955
0.803977
0.804
0.804022
0.804046
0.804069
0.804093
0.804117
0.804141
0.804166
0.804192
0.804217
0.804243
0.830265
)
;

boundaryField
{
    inlet
    {
        type            calculated;
        value           uniform 0;
    }
    outlet2
    {
        type            calculated;
        value           uniform 0;
    }
    outlet1
    {
        type            calculated;
        value           uniform 0;
    }
    wall
    {
        type            calculated;
        value           uniform 0;
    }
    symmetryBottom
    {
        type            symmetry;
    }
    symmetryZ0
    {
        type            symmetry;
    }
    symmetryZ05
    {
        type            symmetry;
    }
}


// ************************************************************************* //
