/*--------------------------------*- C++ -*----------------------------------*\
| =========                 |                                                 |
| \\      /  F ield         | OpenFOAM: The Open Source CFD Toolbox           |
|  \\    /   O peration     | Version:  2412                                  |
|   \\  /    A nd           | Website:  www.openfoam.com                      |
|    \\/     M anipulation  |                                                 |
\*---------------------------------------------------------------------------*/
FoamFile
{
    version     2.0;
    format      ascii;
    arch        "LSB;label=32;scalar=64";
    class       volScalarField;
    location    "1.16035e-06";
    object      E_dof2;
}
// * * * * * * * * * * * * * * * * * * * * * * * * * * * * * * * * * * * * * //

dimensions      [0 0 0 0 0 0 0];

internalField   nonuniform List<scalar> 
625
(
0.0163151
0.027878
-0.000157726
-0.0119056
0.00241402
-0.000659557
-0.00248518
0.0108694
-0.000658533
-0.00252641
0.0108319
-0.000658536
-0.00252628
0.010832
-0.000658536
-0.00252628
0.010832
-0.000658536
-0.00252628
0.010832
-0.000658536
-0.00252628
0.010832
-0.000658536
-0.00252628
0.010832
-0.000658536
-0.00252628
0.010832
-0.000658536
-0.00252628
0.010832
-0.000658536
-0.00252628
0.010832
-0.000658536
-0.00252628
0.010832
-0.000658536
-0.00252628
0.010832
-0.000658536
-0.00252628
0.010832
-0.000658536
-0.00252628
0.010832
-0.000658536
-0.00252628
0.010832
-0.000658536
-0.00252628
0.010832
-0.000658536
-0.00252628
0.010832
-0.000658536
-0.00252628
0.010832
-0.000658536
-0.00252628
0.010832
-0.000658536
-0.00252628
0.010832
-0.000658535
-0.00252627
0.0108319
-0.000656884
-0.00253006
0.0108849
0.000629199
-0.000906032
-0.000948368
-0.00120147
7.22023
7.26947
7.31937
7.36997
7.42127
7.47329
7.52604
7.57953
7.6338
7.68884
7.74468
7.80134
7.85883
7.91717
7.97639
8.03649
8.0975
8.15945
8.22235
8.28622
8.35109
4.82721e-05
-0.218678
-0.221014
-0.223394
-0.225819
-0.228292
-0.230812
-0.233381
-0.236001
-0.238673
-0.241399
-0.244179
-0.247017
-0.249912
-0.252867
-0.255884
-0.258965
-0.262111
-0.265324
-0.268606
-0.27196
-0.275388
-0.000779792
-0.110145
-0.110952
-0.111771
-0.112602
-0.113445
-0.114301
-0.11517
-0.116053
-0.116949
-0.117859
-0.118783
-0.119722
-0.120676
-0.121645
-0.12263
-0.12363
-0.124647
-0.125682
-0.126733
-0.127802
-0.128889
-0.000793375
-0.111034
-0.111842
-0.112663
-0.113495
-0.11434
-0.115198
-0.116068
-0.116952
-0.117849
-0.11876
-0.119685
-0.120625
-0.121579
-0.122548
-0.123534
-0.124534
-0.125552
-0.126585
-0.127636
-0.128705
-0.129791
-0.000792462
-0.111983
-0.112795
-0.11362
-0.114456
-0.115305
-0.116166
-0.117041
-0.117928
-0.118829
-0.119744
-0.120673
-0.121617
-0.122575
-0.123549
-0.124538
-0.125543
-0.126564
-0.127602
-0.128657
-0.129729
-0.13082
-0.000791723
-0.112945
-0.113761
-0.114589
-0.115429
-0.116282
-0.117147
-0.118026
-0.118917
-0.119822
-0.120741
-0.121674
-0.122622
-0.123584
-0.124562
-0.125555
-0.126564
-0.127589
-0.128631
-0.12969
-0.130767
-0.131861
-0.000790983
-0.113927
-0.114747
-0.11558
-0.116424
-0.117281
-0.11815
-0.119033
-0.119929
-0.120838
-0.121761
-0.122699
-0.123651
-0.124617
-0.125599
-0.126597
-0.12761
-0.12864
-0.129686
-0.13075
-0.131831
-0.13293
-0.000790244
-0.114929
-0.115754
-0.116591
-0.11744
-0.118301
-0.119175
-0.120062
-0.120963
-0.121877
-0.122805
-0.123747
-0.124703
-0.125675
-0.126661
-0.127664
-0.128682
-0.129716
-0.130767
-0.131836
-0.132922
-0.134026
-0.000789505
-0.115952
-0.116782
-0.117623
-0.118477
-0.119343
-0.120222
-0.121114
-0.122019
-0.122938
-0.123871
-0.124818
-0.12578
-0.126756
-0.127748
-0.128755
-0.129779
-0.130818
-0.131875
-0.132948
-0.13404
-0.135149
-0.000788766
-0.11698
-0.117815
-0.118662
-0.11952
-0.120392
-0.121276
-0.122173
-0.123083
-0.124008
-0.124946
-0.125898
-0.126865
-0.127847
-0.128844
-0.129857
-0.130886
-0.131931
-0.132993
-0.134073
-0.135169
-0.136284
-0.00078779
-0.117389
-0.118224
-0.119072
-0.119931
-0.120803
-0.121688
-0.122585
-0.123496
-0.124421
-0.12536
-0.126313
-0.12728
-0.128262
-0.12926
-0.130273
-0.131302
-0.132348
-0.13341
-0.13449
-0.135587
-0.136702
-0.000787178
-0.117779
-0.118614
-0.119462
-0.120321
-0.121193
-0.122077
-0.122975
-0.123886
-0.12481
-0.125748
-0.126701
-0.127668
-0.12865
-0.129647
-0.13066
-0.131688
-0.132733
-0.133795
-0.134873
-0.135969
-0.137083
-0.000787438
-0.118176
-0.119012
-0.119859
-0.120719
-0.12159
-0.122475
-0.123373
-0.124283
-0.125208
-0.126146
-0.127098
-0.128065
-0.129046
-0.130043
-0.131055
-0.132083
-0.133128
-0.134189
-0.135267
-0.136362
-0.137475
-0.000787566
-0.118582
-0.119417
-0.120265
-0.121125
-0.121997
-0.122881
-0.123779
-0.12469
-0.125614
-0.126552
-0.127504
-0.128471
-0.129452
-0.130449
-0.131461
-0.132488
-0.133532
-0.134593
-0.13567
-0.136765
-0.137878
-0.000787693
-0.118995
-0.119831
-0.120679
-0.121539
-0.122411
-0.123296
-0.124194
-0.125105
-0.126029
-0.126967
-0.12792
-0.128886
-0.129868
-0.130864
-0.131876
-0.132904
-0.133947
-0.135008
-0.136085
-0.137179
-0.138291
-0.000787819
-0.119415
-0.120252
-0.1211
-0.121961
-0.122834
-0.123719
-0.124617
-0.125529
-0.126453
-0.127392
-0.128344
-0.129311
-0.130293
-0.131289
-0.132301
-0.133329
-0.134372
-0.135432
-0.136509
-0.137604
-0.138716
-0.000787945
-0.119844
-0.120681
-0.12153
-0.122391
-0.123265
-0.12415
-0.125049
-0.125961
-0.126886
-0.127825
-0.128778
-0.129745
-0.130727
-0.131724
-0.132736
-0.133763
-0.134807
-0.135867
-0.136944
-0.138039
-0.13915
-0.000788069
-0.12028
-0.121118
-0.121968
-0.12283
-0.123704
-0.12459
-0.125489
-0.126402
-0.127328
-0.128267
-0.12922
-0.130188
-0.13117
-0.132167
-0.13318
-0.134208
-0.135252
-0.136313
-0.13739
-0.138484
-0.139596
-0.000788193
-0.120724
-0.121563
-0.122414
-0.123276
-0.124151
-0.125038
-0.125938
-0.126851
-0.127778
-0.128718
-0.129672
-0.13064
-0.131623
-0.132621
-0.133634
-0.134662
-0.135707
-0.136768
-0.137845
-0.13894
-0.140052
-0.000788316
-0.121176
-0.122016
-0.122867
-0.12373
-0.124606
-0.125494
-0.126395
-0.127309
-0.128237
-0.129178
-0.130132
-0.131101
-0.132085
-0.133084
-0.134097
-0.135127
-0.136172
-0.137233
-0.138311
-0.139406
-0.140519
-0.000788437
-0.121635
-0.122476
-0.123328
-0.124193
-0.12507
-0.125959
-0.126861
-0.127776
-0.128704
-0.129646
-0.130602
-0.131572
-0.132556
-0.133556
-0.13457
-0.1356
-0.136646
-0.137708
-0.138787
-0.139883
-0.140996
-0.000788557
-0.122101
-0.122944
-0.123797
-0.124663
-0.125541
-0.126431
-0.127335
-0.128251
-0.12918
-0.130123
-0.13108
-0.132051
-0.133037
-0.134037
-0.135052
-0.136083
-0.13713
-0.138193
-0.139273
-0.14037
-0.141484
-0.000788676
-0.122576
-0.123419
-0.124274
-0.125141
-0.126021
-0.126912
-0.127817
-0.128734
-0.129665
-0.130609
-0.131567
-0.132539
-0.133526
-0.134528
-0.135544
-0.136576
-0.137624
-0.138689
-0.139769
-0.140867
-0.141982
-0.000788793
-0.123007
-0.123851
-0.124707
-0.125575
-0.126455
-0.127347
-0.128252
-0.12917
-0.130101
-0.131046
-0.132005
-0.132978
-0.133965
-0.134967
-0.135984
-0.137016
-0.138065
-0.139129
-0.14021
-0.141308
-0.142424
-0.000788967
-0.134415
-0.135338
-0.136275
-0.137224
-0.138187
-0.139163
-0.140153
-0.141157
-0.142176
-0.14321
-0.144259
-0.145323
-0.146403
-0.147499
-0.148612
-0.149742
-0.150888
-0.152053
-0.153236
-0.154437
-0.155658
-0.000801901
)
;

boundaryField
{
    inlet
    {
        type            calculated;
        value           uniform 0;
    }
    outlet2
    {
        type            calculated;
        value           uniform 0;
    }
    outlet1
    {
        type            calculated;
        value           uniform 0;
    }
    wall
    {
        type            calculated;
        value           uniform 0;
    }
    symmetryBottom
    {
        type            symmetry;
    }
    symmetryZ0
    {
        type            symmetry;
    }
    symmetryZ05
    {
        type            symmetry;
    }
}


// ************************************************************************* //
