/*--------------------------------*- C++ -*----------------------------------*\
| =========                 |                                                 |
| \\      /  F ield         | OpenFOAM: The Open Source CFD Toolbox           |
|  \\    /   O peration     | Version:  2412                                  |
|   \\  /    A nd           | Website:  www.openfoam.com                      |
|    \\/     M anipulation  |                                                 |
\*---------------------------------------------------------------------------*/
FoamFile
{
    version     2.0;
    format      ascii;
    arch        "LSB;label=32;scalar=64";
    class       volScalarField;
    location    "1.16035e-06";
    object      E_dof0;
}
// * * * * * * * * * * * * * * * * * * * * * * * * * * * * * * * * * * * * * //

dimensions      [0 0 0 0 0 0 0];

internalField   nonuniform List<scalar> 
625
(
101.598
82.4934
82.4934
101.601
82.4963
82.4963
101.598
82.4935
82.4935
101.598
82.4935
82.4935
101.598
82.4935
82.4935
101.598
82.4935
82.4935
101.598
82.4935
82.4935
101.598
82.4935
82.4935
101.598
82.4935
82.4935
101.598
82.4935
82.4935
101.598
82.4935
82.4935
101.598
82.4935
82.4935
101.598
82.4935
82.4935
101.598
82.4935
82.4935
101.598
82.4935
82.4935
101.598
82.4935
82.4935
101.598
82.4935
82.4935
101.598
82.4935
82.4935
101.598
82.4935
82.4935
101.598
82.4935
82.4935
101.598
82.4935
82.4935
101.598
82.4935
82.4935
101.598
82.4935
82.4935
101.598
82.4935
82.4936
101.599
82.4895
82.4896
85.1515
85.1502
85.1488
85.1475
85.1461
85.1448
85.1434
85.142
85.1406
85.1391
85.1377
85.1362
85.1348
85.1333
85.1318
85.1303
85.1288
85.1273
85.1257
85.1241
85.1226
85.2262
87.5386
87.5538
87.5693
87.5849
87.6008
87.6169
87.6333
87.6499
87.6667
87.6838
87.7012
87.7188
87.7367
87.7549
87.7733
87.7921
87.8112
87.8305
87.8502
87.8702
87.8905
87.9974
87.4102
87.4243
87.4385
87.453
87.4676
87.4825
87.4976
87.5129
87.5284
87.5442
87.5602
87.5764
87.5929
87.6097
87.6267
87.6439
87.6615
87.6793
87.6974
87.7157
87.7344
87.8411
87.3183
87.3317
87.3453
87.3591
87.3731
87.3873
87.4017
87.4163
87.4311
87.4461
87.4614
87.4769
87.4926
87.5086
87.5248
87.5413
87.558
87.575
87.5922
87.6098
87.6276
87.7342
87.2266
87.2393
87.2523
87.2654
87.2787
87.2922
87.3059
87.3198
87.3339
87.3482
87.3627
87.3775
87.3924
87.4076
87.4231
87.4387
87.4547
87.4708
87.4872
87.5039
87.5209
87.6274
87.1349
87.147
87.1593
87.1717
87.1844
87.1972
87.2102
87.2234
87.2368
87.2504
87.2641
87.2781
87.2924
87.3068
87.3214
87.3363
87.3514
87.3668
87.3824
87.3982
87.4143
87.5207
87.0433
87.0547
87.0664
87.0782
87.0901
87.1023
87.1146
87.1271
87.1397
87.1526
87.1657
87.1789
87.1924
87.206
87.2199
87.234
87.2483
87.2628
87.2776
87.2926
87.3078
87.4141
86.9517
86.9626
86.9735
86.9847
86.996
87.0074
87.0191
87.0308
87.0428
87.055
87.0673
87.0798
87.0925
87.1054
87.1185
87.1318
87.1453
87.159
87.1729
87.1871
87.2015
87.3076
86.8603
86.8705
86.8808
86.8913
86.9019
86.9127
86.9236
86.9347
86.946
86.9574
86.969
86.9808
86.9927
87.0048
87.0172
87.0297
87.0424
87.0553
87.0684
87.0817
87.0952
87.2012
86.7689
86.7785
86.7882
86.798
86.8079
86.818
86.8283
86.8387
86.8492
86.8599
86.8708
86.8818
86.893
86.9044
86.9159
86.9277
86.9396
86.9516
86.9639
86.9764
86.9891
87.095
86.6779
86.6868
86.6958
86.705
86.7143
86.7237
86.7333
86.743
86.7528
86.7628
86.7729
86.7832
86.7937
86.8043
86.8151
86.826
86.8371
86.8484
86.8598
86.8715
86.8833
86.9891
86.5869
86.5952
86.6036
86.6121
86.6207
86.6295
86.6383
86.6473
86.6565
86.6658
86.6752
86.6847
86.6944
86.7043
86.7143
86.7244
86.7347
86.7452
86.7559
86.7667
86.7776
86.8833
86.496
86.5037
86.5114
86.5193
86.5272
86.5353
86.5435
86.5518
86.5603
86.5688
86.5775
86.5863
86.5953
86.6044
86.6136
86.623
86.6325
86.6422
86.652
86.662
86.6721
86.7777
86.4052
86.4122
86.4193
86.4265
86.4338
86.4412
86.4488
86.4564
86.4641
86.472
86.4799
86.488
86.4962
86.5046
86.513
86.5216
86.5304
86.5392
86.5482
86.5574
86.5667
86.6721
86.3145
86.3209
86.3273
86.3339
86.3405
86.3473
86.3541
86.361
86.3681
86.3752
86.3825
86.3898
86.3973
86.4049
86.4126
86.4204
86.4283
86.4364
86.4446
86.4529
86.4614
86.5667
86.2239
86.2296
86.2354
86.2413
86.2473
86.2534
86.2596
86.2658
86.2721
86.2786
86.2851
86.2917
86.2985
86.3053
86.3122
86.3193
86.3264
86.3337
86.3411
86.3485
86.3562
86.4614
86.1334
86.1385
86.1436
86.1489
86.1542
86.1596
86.1651
86.1707
86.1763
86.182
86.1878
86.1937
86.1997
86.2058
86.212
86.2182
86.2246
86.2311
86.2376
86.2443
86.2511
86.3562
86.0429
86.0474
86.0519
86.0565
86.0612
86.0659
86.0707
86.0756
86.0805
86.0856
86.0907
86.0958
86.1011
86.1064
86.1118
86.1173
86.1229
86.1286
86.1343
86.1402
86.1461
86.2511
85.9525
85.9564
85.9603
85.9642
85.9682
85.9723
85.9764
85.9806
85.9849
85.9892
85.9936
85.998
86.0025
86.0071
86.0118
86.0165
86.0213
86.0262
86.0311
86.0362
86.0413
86.1461
85.8622
85.8655
85.8687
85.872
85.8754
85.8788
85.8823
85.8858
85.8893
85.8929
85.8966
85.9003
85.9041
85.908
85.9118
85.9158
85.9198
85.9239
85.928
85.9323
85.9365
86.0413
85.7721
85.7746
85.7773
85.7799
85.7827
85.7854
85.7882
85.791
85.7939
85.7968
85.7997
85.8027
85.8058
85.8089
85.812
85.8152
85.8184
85.8217
85.8251
85.8285
85.8319
85.9365
85.6819
85.6839
85.6859
85.6879
85.69
85.6921
85.6942
85.6963
85.6985
85.7007
85.703
85.7052
85.7076
85.7099
85.7123
85.7147
85.7172
85.7197
85.7222
85.7248
85.7274
85.8319
85.5919
85.5933
85.5946
85.596
85.5974
85.5988
85.6003
85.6018
85.6032
85.6048
85.6063
85.6079
85.6094
85.611
85.6127
85.6143
85.616
85.6177
85.6195
85.6212
85.623
85.7274
85.502
85.5027
85.5035
85.5042
85.505
85.5057
85.5065
85.5073
85.5081
85.5089
85.5097
85.5106
85.5114
85.5123
85.5132
85.5141
85.515
85.5159
85.5169
85.5178
85.5188
85.623
85.4085
85.4086
85.4086
85.4087
85.4088
85.4089
85.409
85.4091
85.4092
85.4092
85.4093
85.4094
85.4095
85.4096
85.4097
85.4098
85.4099
85.41
85.4102
85.4103
85.4104
85.5147
)
;

boundaryField
{
    inlet
    {
        type            calculated;
        value           uniform 99.4306;
    }
    outlet2
    {
        type            calculated;
        value           uniform 99.4306;
    }
    outlet1
    {
        type            calculated;
        value           uniform 99.4306;
    }
    wall
    {
        type            calculated;
        value           uniform 99.4306;
    }
    symmetryBottom
    {
        type            symmetry;
    }
    symmetryZ0
    {
        type            symmetry;
    }
    symmetryZ05
    {
        type            symmetry;
    }
}


// ************************************************************************* //
