/*--------------------------------*- C++ -*----------------------------------*\
| =========                 |                                                 |
| \\      /  F ield         | OpenFOAM: The Open Source CFD Toolbox           |
|  \\    /   O peration     | Version:  2412                                  |
|   \\  /    A nd           | Website:  www.openfoam.com                      |
|    \\/     M anipulation  |                                                 |
\*---------------------------------------------------------------------------*/
FoamFile
{
    version     2.0;
    format      ascii;
    arch        "LSB;label=32;scalar=64";
    class       volScalarField;
    location    "1.16035e-06";
    object      E_dof1;
}
// * * * * * * * * * * * * * * * * * * * * * * * * * * * * * * * * * * * * * //

dimensions      [0 0 0 0 0 0 0];

internalField   nonuniform List<scalar> 
625
(
48.8978
-3.33011e-06
-0.0279091
48.8987
-3.33006e-06
-0.00277278
48.8988
-3.33014e-06
-0.0112294
48.8988
-3.33014e-06
-0.0111918
48.8988
-3.33014e-06
-0.011192
48.8988
-3.33014e-06
-0.011192
48.8988
-3.33014e-06
-0.011192
48.8988
-3.33014e-06
-0.011192
48.8988
-3.33014e-06
-0.011192
48.8988
-3.33014e-06
-0.011192
48.8988
-3.33014e-06
-0.011192
48.8988
-3.33014e-06
-0.011192
48.8988
-3.33014e-06
-0.011192
48.8988
-3.33014e-06
-0.011192
48.8988
-3.33014e-06
-0.011192
48.8988
-3.33014e-06
-0.011192
48.8988
-3.33014e-06
-0.011192
48.8988
-3.33014e-06
-0.011192
48.8988
-3.33014e-06
-0.011192
48.8988
-3.33014e-06
-0.011192
48.8988
-3.33014e-06
-0.011192
48.8988
-3.33014e-06
-0.011192
48.8988
-3.33014e-06
-0.0111911
48.8988
-3.33014e-06
-0.0114624
48.91
-3.33166e-06
-0.00113345
-0.116244
-0.117044
-0.117855
-0.118676
-0.11951
-0.120355
-0.121212
-0.122082
-0.122964
-0.123859
-0.124767
-0.125689
-0.126624
-0.127573
-0.128537
-0.129515
-0.130508
-0.131517
-0.132541
-0.133582
-0.134639
-8.35943
-0.119391
-0.120234
-0.121089
-0.121957
-0.122837
-0.12373
-0.124636
-0.125555
-0.126488
-0.127435
-0.128396
-0.129372
-0.130363
-0.131369
-0.132391
-0.133429
-0.134483
-0.135554
-0.136642
-0.137748
-0.138871
0.276717
-0.119275
-0.120116
-0.12097
-0.121836
-0.122714
-0.123605
-0.12451
-0.125427
-0.126358
-0.127303
-0.128262
-0.129236
-0.130225
-0.131229
-0.132248
-0.133284
-0.134336
-0.135404
-0.13649
-0.137593
-0.138715
0.129999
-0.11916
-0.12
-0.120852
-0.121716
-0.122593
-0.123482
-0.124385
-0.125301
-0.12623
-0.127173
-0.12813
-0.129102
-0.130089
-0.131091
-0.132108
-0.133141
-0.134191
-0.135257
-0.136341
-0.137442
-0.13856
0.130893
-0.119046
-0.119884
-0.120735
-0.121597
-0.122472
-0.12336
-0.12426
-0.125174
-0.126101
-0.127043
-0.127998
-0.128968
-0.129953
-0.130952
-0.131968
-0.132999
-0.134046
-0.13511
-0.136191
-0.13729
-0.138406
0.131912
-0.118931
-0.119768
-0.120617
-0.121478
-0.122351
-0.123237
-0.124136
-0.125048
-0.125973
-0.126913
-0.127866
-0.128834
-0.129816
-0.130814
-0.131827
-0.132856
-0.133902
-0.134963
-0.136042
-0.137138
-0.138252
0.132943
-0.118817
-0.119652
-0.120499
-0.121359
-0.12223
-0.123114
-0.124011
-0.124922
-0.125845
-0.126783
-0.127734
-0.1287
-0.129681
-0.130676
-0.131687
-0.132714
-0.133757
-0.134817
-0.135893
-0.136987
-0.138098
0.134002
-0.118703
-0.119537
-0.120382
-0.12124
-0.122109
-0.122992
-0.123887
-0.124796
-0.125717
-0.126653
-0.127602
-0.128566
-0.129545
-0.130538
-0.131547
-0.132572
-0.133613
-0.13467
-0.135744
-0.136835
-0.137944
0.135089
-0.118589
-0.119421
-0.120265
-0.121121
-0.121989
-0.122869
-0.123763
-0.124669
-0.125589
-0.126523
-0.127471
-0.128433
-0.129409
-0.130401
-0.131408
-0.13243
-0.133469
-0.134524
-0.135595
-0.136684
-0.137791
0.136202
-0.118475
-0.119305
-0.120148
-0.121002
-0.121868
-0.122747
-0.123639
-0.124544
-0.125462
-0.126393
-0.127339
-0.128299
-0.129274
-0.130263
-0.131268
-0.132288
-0.133325
-0.134377
-0.135447
-0.136533
-0.137637
0.137327
-0.118359
-0.119188
-0.120029
-0.120881
-0.121746
-0.122623
-0.123513
-0.124416
-0.125332
-0.126262
-0.127206
-0.128164
-0.129137
-0.130124
-0.131126
-0.132145
-0.133179
-0.134229
-0.135296
-0.13638
-0.137482
0.137701
-0.118244
-0.119071
-0.11991
-0.120761
-0.121624
-0.1225
-0.123388
-0.124289
-0.125203
-0.126131
-0.127073
-0.128029
-0.128999
-0.129985
-0.130985
-0.132001
-0.133033
-0.134081
-0.135146
-0.136228
-0.137327
0.138003
-0.118129
-0.118955
-0.119792
-0.120641
-0.121502
-0.122376
-0.123262
-0.124162
-0.125074
-0.126
-0.12694
-0.127894
-0.128863
-0.129846
-0.130844
-0.131858
-0.132887
-0.133933
-0.134996
-0.136075
-0.137172
0.138314
-0.118014
-0.118838
-0.119674
-0.120521
-0.121381
-0.122253
-0.123137
-0.124035
-0.124945
-0.125869
-0.126807
-0.127759
-0.128726
-0.129707
-0.130703
-0.131715
-0.132742
-0.133786
-0.134846
-0.135923
-0.137017
0.138635
-0.117899
-0.118721
-0.119555
-0.120401
-0.121259
-0.122129
-0.123012
-0.123908
-0.124817
-0.125739
-0.126675
-0.127625
-0.128589
-0.129568
-0.130562
-0.131572
-0.132597
-0.133638
-0.134696
-0.13577
-0.136862
0.138967
-0.117784
-0.118605
-0.119437
-0.120281
-0.121138
-0.122006
-0.122887
-0.123781
-0.124688
-0.125608
-0.126542
-0.12749
-0.128453
-0.129429
-0.130421
-0.131429
-0.132452
-0.133491
-0.134546
-0.135618
-0.136708
0.13931
-0.117669
-0.118488
-0.119319
-0.120162
-0.121016
-0.121883
-0.122762
-0.123654
-0.124559
-0.125478
-0.12641
-0.127356
-0.128316
-0.129291
-0.130281
-0.131286
-0.132307
-0.133343
-0.134396
-0.135466
-0.136553
0.139663
-0.117554
-0.118372
-0.119201
-0.120042
-0.120895
-0.12176
-0.122637
-0.123528
-0.124431
-0.125347
-0.126278
-0.127222
-0.12818
-0.129153
-0.13014
-0.131143
-0.132162
-0.133196
-0.134247
-0.135314
-0.136399
0.140027
-0.11744
-0.118256
-0.119083
-0.119923
-0.120774
-0.121637
-0.122513
-0.123401
-0.124302
-0.125217
-0.126145
-0.127087
-0.128044
-0.129014
-0.13
-0.131001
-0.132017
-0.133049
-0.134098
-0.135163
-0.136245
0.140402
-0.117325
-0.11814
-0.118966
-0.119803
-0.120653
-0.121514
-0.122388
-0.123275
-0.124174
-0.125087
-0.126013
-0.126953
-0.127908
-0.128876
-0.12986
-0.130858
-0.131872
-0.132902
-0.133948
-0.135011
-0.136091
0.140787
-0.117211
-0.118024
-0.118848
-0.119684
-0.120532
-0.121392
-0.122264
-0.123148
-0.124046
-0.124957
-0.125881
-0.126819
-0.127772
-0.128738
-0.12972
-0.130716
-0.131728
-0.132756
-0.133799
-0.13486
-0.135937
0.141183
-0.117097
-0.117908
-0.11873
-0.119565
-0.120411
-0.121269
-0.122139
-0.123022
-0.123918
-0.124827
-0.12575
-0.126686
-0.127636
-0.1286
-0.12958
-0.130574
-0.131584
-0.132609
-0.133651
-0.134709
-0.135784
0.14159
-0.116982
-0.117792
-0.118613
-0.119446
-0.12029
-0.121146
-0.122015
-0.122896
-0.12379
-0.124697
-0.125618
-0.126552
-0.1275
-0.128463
-0.12944
-0.130432
-0.131439
-0.132463
-0.133502
-0.134558
-0.13563
0.142007
-0.116868
-0.117676
-0.118496
-0.119327
-0.120169
-0.121024
-0.121891
-0.12277
-0.123662
-0.124568
-0.125486
-0.126419
-0.127365
-0.128325
-0.1293
-0.13029
-0.131296
-0.132316
-0.133353
-0.134407
-0.135477
0.142369
-0.116777
-0.117584
-0.118402
-0.119232
-0.120073
-0.120926
-0.121792
-0.12267
-0.12356
-0.124464
-0.125381
-0.126312
-0.127256
-0.128215
-0.129189
-0.130177
-0.13118
-0.132199
-0.133235
-0.134286
-0.135354
0.154874
)
;

boundaryField
{
    inlet
    {
        type            calculated;
        value           uniform 0;
    }
    outlet2
    {
        type            calculated;
        value           uniform 0;
    }
    outlet1
    {
        type            calculated;
        value           uniform 0;
    }
    wall
    {
        type            calculated;
        value           uniform 0;
    }
    symmetryBottom
    {
        type            symmetry;
    }
    symmetryZ0
    {
        type            symmetry;
    }
    symmetryZ05
    {
        type            symmetry;
    }
}


// ************************************************************************* //
