/*--------------------------------*- C++ -*----------------------------------*\
| =========                 |                                                 |
| \\      /  F ield         | OpenFOAM: The Open Source CFD Toolbox           |
|  \\    /   O peration     | Version:  2412                                  |
|   \\  /    A nd           | Website:  www.openfoam.com                      |
|    \\/     M anipulation  |                                                 |
\*---------------------------------------------------------------------------*/
FoamFile
{
    version     2.0;
    format      ascii;
    arch        "LSB;label=32;scalar=64";
    class       volScalarField;
    location    "1.16035e-06";
    object      p;
}
// * * * * * * * * * * * * * * * * * * * * * * * * * * * * * * * * * * * * * //

dimensions      [0 0 0 0 0 0 0];

internalField   nonuniform List<scalar> 
625
(
1.19252
0.97084
0.970835
1.19269
0.97098
0.970981
1.19263
0.970926
0.970926
1.19263
0.970926
0.970926
1.19263
0.970926
0.970926
1.19263
0.970926
0.970926
1.19263
0.970926
0.970926
1.19263
0.970926
0.970926
1.19263
0.970926
0.970926
1.19263
0.970926
0.970926
1.19263
0.970926
0.970926
1.19263
0.970926
0.970926
1.19263
0.970926
0.970926
1.19263
0.970926
0.970926
1.19263
0.970926
0.970926
1.19263
0.970926
0.970926
1.19263
0.970926
0.970926
1.19263
0.970926
0.970926
1.19263
0.970926
0.970926
1.19263
0.970926
0.970926
1.19263
0.970926
0.970926
1.19263
0.970926
0.970926
1.19263
0.970926
0.970926
1.19263
0.970926
0.970928
1.19264
0.97088
0.970882
1.25204
1.25428
1.25657
1.2589
1.26126
1.26368
1.26614
1.26864
1.27119
1.27379
1.27644
1.27914
1.28189
1.2847
1.28756
1.29048
1.29346
1.2965
1.2996
1.30277
1.306
1.30754
1.02702
1.02716
1.02729
1.02743
1.02758
1.02772
1.02786
1.02801
1.02816
1.02831
1.02846
1.02862
1.02877
1.02893
1.02909
1.02925
1.02941
1.02958
1.02975
1.02992
1.03009
1.03135
1.02811
1.02828
1.02844
1.02861
1.02878
1.02896
1.02913
1.02931
1.02949
1.02967
1.02986
1.03005
1.03024
1.03044
1.03064
1.03084
1.03104
1.03125
1.03146
1.03167
1.03189
1.03315
1.02703
1.02718
1.02734
1.0275
1.02766
1.02783
1.028
1.02817
1.02834
1.02851
1.02869
1.02887
1.02905
1.02924
1.02943
1.02962
1.02981
1.03001
1.03021
1.03041
1.03062
1.03188
1.02596
1.02611
1.02626
1.02641
1.02657
1.02672
1.02688
1.02704
1.02721
1.02737
1.02754
1.02771
1.02789
1.02806
1.02824
1.02842
1.02861
1.0288
1.02899
1.02918
1.02938
1.03063
1.02489
1.02504
1.02518
1.02532
1.02547
1.02562
1.02577
1.02592
1.02608
1.02624
1.0264
1.02656
1.02672
1.02689
1.02706
1.02723
1.02741
1.02759
1.02777
1.02795
1.02814
1.02939
1.02383
1.02396
1.0241
1.02423
1.02437
1.02451
1.02466
1.0248
1.02495
1.0251
1.02525
1.0254
1.02556
1.02572
1.02588
1.02604
1.02621
1.02638
1.02655
1.02672
1.0269
1.02815
1.02277
1.02289
1.02302
1.02315
1.02328
1.02341
1.02355
1.02368
1.02382
1.02396
1.02411
1.02425
1.0244
1.02455
1.0247
1.02486
1.02501
1.02517
1.02533
1.0255
1.02566
1.02692
1.0217
1.02182
1.02194
1.02206
1.02219
1.02231
1.02244
1.02257
1.0227
1.02283
1.02296
1.0231
1.02324
1.02338
1.02352
1.02367
1.02382
1.02397
1.02412
1.02427
1.02443
1.02568
1.02064
1.02075
1.02086
1.02098
1.02109
1.02121
1.02133
1.02145
1.02157
1.0217
1.02182
1.02195
1.02208
1.02221
1.02235
1.02248
1.02262
1.02276
1.0229
1.02305
1.02319
1.02444
1.01958
1.01968
1.01979
1.0199
1.02
1.02011
1.02022
1.02034
1.02045
1.02057
1.02068
1.0208
1.02092
1.02105
1.02117
1.0213
1.02143
1.02156
1.02169
1.02183
1.02196
1.02321
1.01852
1.01862
1.01872
1.01882
1.01892
1.01902
1.01912
1.01922
1.01933
1.01944
1.01955
1.01966
1.01977
1.01988
1.02
1.02012
1.02024
1.02036
1.02048
1.02061
1.02074
1.02198
1.01747
1.01755
1.01764
1.01774
1.01783
1.01792
1.01802
1.01811
1.01821
1.01831
1.01841
1.01851
1.01862
1.01872
1.01883
1.01894
1.01905
1.01916
1.01928
1.01939
1.01951
1.02075
1.01641
1.01649
1.01657
1.01666
1.01674
1.01683
1.01692
1.017
1.01709
1.01718
1.01728
1.01737
1.01747
1.01756
1.01766
1.01776
1.01786
1.01796
1.01807
1.01818
1.01828
1.01953
1.01536
1.01543
1.0155
1.01558
1.01566
1.01574
1.01582
1.0159
1.01598
1.01606
1.01614
1.01623
1.01632
1.0164
1.01649
1.01658
1.01668
1.01677
1.01686
1.01696
1.01706
1.0183
1.0143
1.01437
1.01444
1.0145
1.01457
1.01464
1.01472
1.01479
1.01486
1.01494
1.01501
1.01509
1.01517
1.01525
1.01533
1.01541
1.01549
1.01558
1.01566
1.01575
1.01584
1.01708
1.01325
1.01331
1.01337
1.01343
1.01349
1.01355
1.01362
1.01368
1.01375
1.01381
1.01388
1.01395
1.01402
1.01409
1.01416
1.01423
1.01431
1.01438
1.01446
1.01454
1.01461
1.01585
1.0122
1.01225
1.0123
1.01236
1.01241
1.01246
1.01252
1.01258
1.01263
1.01269
1.01275
1.01281
1.01287
1.01293
1.013
1.01306
1.01312
1.01319
1.01326
1.01332
1.01339
1.01463
1.01115
1.01119
1.01124
1.01128
1.01133
1.01138
1.01142
1.01147
1.01152
1.01157
1.01162
1.01167
1.01173
1.01178
1.01183
1.01189
1.01194
1.012
1.01206
1.01212
1.01217
1.01341
1.0101
1.01013
1.01017
1.01021
1.01025
1.01029
1.01033
1.01037
1.01041
1.01045
1.01049
1.01054
1.01058
1.01063
1.01067
1.01072
1.01076
1.01081
1.01086
1.01091
1.01096
1.01219
1.00905
1.00908
1.00911
1.00914
1.00917
1.0092
1.00923
1.00927
1.0093
1.00933
1.00937
1.0094
1.00944
1.00947
1.00951
1.00955
1.00958
1.00962
1.00966
1.0097
1.00974
1.01097
1.008
1.00802
1.00805
1.00807
1.00809
1.00812
1.00814
1.00817
1.00819
1.00822
1.00824
1.00827
1.0083
1.00832
1.00835
1.00838
1.00841
1.00844
1.00846
1.00849
1.00852
1.00976
1.00695
1.00697
1.00698
1.007
1.00702
1.00703
1.00705
1.00707
1.00708
1.0071
1.00712
1.00714
1.00715
1.00717
1.00719
1.00721
1.00723
1.00725
1.00727
1.00729
1.00731
1.00854
1.00591
1.00592
1.00592
1.00593
1.00594
1.00595
1.00596
1.00597
1.00598
1.00599
1.006
1.00601
1.00602
1.00603
1.00604
1.00605
1.00606
1.00607
1.00608
1.00609
1.0061
1.00733
1.00482
1.00482
1.00482
1.00482
1.00482
1.00482
1.00482
1.00483
1.00483
1.00483
1.00483
1.00483
1.00483
1.00483
1.00483
1.00483
1.00483
1.00483
1.00484
1.00484
1.00484
1.00607
)
;

boundaryField
{
    inlet
    {
        type            calculated;
        value           uniform 0;
    }
    outlet2
    {
        type            calculated;
        value           uniform 0;
    }
    outlet1
    {
        type            calculated;
        value           uniform 0;
    }
    wall
    {
        type            calculated;
        value           uniform 0;
    }
    symmetryBottom
    {
        type            symmetry;
    }
    symmetryZ0
    {
        type            symmetry;
    }
    symmetryZ05
    {
        type            symmetry;
    }
}


// ************************************************************************* //
