/*--------------------------------*- C++ -*----------------------------------*\
| =========                 |                                                 |
| \\      /  F ield         | OpenFOAM: The Open Source CFD Toolbox           |
|  \\    /   O peration     | Version:  2412                                  |
|   \\  /    A nd           | Website:  www.openfoam.com                      |
|    \\/     M anipulation  |                                                 |
\*---------------------------------------------------------------------------*/
FoamFile
{
    version     2.0;
    format      ascii;
    arch        "LSB;label=32;scalar=64";
    class       volScalarField;
    location    "1.16035e-06";
    object      rho;
}
// * * * * * * * * * * * * * * * * * * * * * * * * * * * * * * * * * * * * * //

dimensions      [0 0 0 0 0 0 0];

internalField   nonuniform List<scalar> 
625
(
2.87078e-05
2.33715e-05
2.33715e-05
2.87087e-05
2.33723e-05
2.33723e-05
2.87079e-05
2.33715e-05
2.33715e-05
2.87079e-05
2.33715e-05
2.33715e-05
2.87079e-05
2.33715e-05
2.33715e-05
2.87079e-05
2.33715e-05
2.33715e-05
2.87079e-05
2.33715e-05
2.33715e-05
2.87079e-05
2.33715e-05
2.33715e-05
2.87079e-05
2.33715e-05
2.33715e-05
2.87079e-05
2.33715e-05
2.33715e-05
2.87079e-05
2.33715e-05
2.33715e-05
2.87079e-05
2.33715e-05
2.33715e-05
2.87079e-05
2.33715e-05
2.33715e-05
2.87079e-05
2.33715e-05
2.33715e-05
2.87079e-05
2.33715e-05
2.33715e-05
2.87079e-05
2.33715e-05
2.33715e-05
2.87079e-05
2.33715e-05
2.33715e-05
2.87079e-05
2.33715e-05
2.33715e-05
2.87079e-05
2.33715e-05
2.33715e-05
2.87079e-05
2.33715e-05
2.33715e-05
2.87079e-05
2.33715e-05
2.33715e-05
2.87079e-05
2.33715e-05
2.33715e-05
2.87079e-05
2.33715e-05
2.33715e-05
2.87079e-05
2.33715e-05
2.33716e-05
2.87082e-05
2.33704e-05
2.33705e-05
2.42173e-05
2.42178e-05
2.42184e-05
2.4219e-05
2.42196e-05
2.42203e-05
2.42209e-05
2.42216e-05
2.42223e-05
2.42229e-05
2.42237e-05
2.42244e-05
2.42251e-05
2.42259e-05
2.42267e-05
2.42275e-05
2.42283e-05
2.42292e-05
2.42301e-05
2.4231e-05
2.42319e-05
2.42608e-05
2.47831e-05
2.47873e-05
2.47917e-05
2.4796e-05
2.48005e-05
2.4805e-05
2.48095e-05
2.48142e-05
2.48189e-05
2.48236e-05
2.48285e-05
2.48334e-05
2.48384e-05
2.48435e-05
2.48486e-05
2.48539e-05
2.48592e-05
2.48646e-05
2.48701e-05
2.48757e-05
2.48814e-05
2.4911e-05
2.47476e-05
2.47515e-05
2.47555e-05
2.47595e-05
2.47636e-05
2.47678e-05
2.4772e-05
2.47763e-05
2.47806e-05
2.47851e-05
2.47895e-05
2.47941e-05
2.47987e-05
2.48034e-05
2.48081e-05
2.4813e-05
2.48179e-05
2.48228e-05
2.48279e-05
2.4833e-05
2.48383e-05
2.48679e-05
2.47219e-05
2.47256e-05
2.47294e-05
2.47333e-05
2.47372e-05
2.47412e-05
2.47452e-05
2.47493e-05
2.47534e-05
2.47576e-05
2.47619e-05
2.47662e-05
2.47706e-05
2.47751e-05
2.47796e-05
2.47842e-05
2.47889e-05
2.47937e-05
2.47985e-05
2.48034e-05
2.48084e-05
2.48379e-05
2.46962e-05
2.46998e-05
2.47034e-05
2.47071e-05
2.47108e-05
2.47146e-05
2.47184e-05
2.47223e-05
2.47262e-05
2.47302e-05
2.47343e-05
2.47384e-05
2.47426e-05
2.47468e-05
2.47512e-05
2.47555e-05
2.476e-05
2.47645e-05
2.47691e-05
2.47738e-05
2.47785e-05
2.48081e-05
2.46705e-05
2.46739e-05
2.46774e-05
2.46808e-05
2.46844e-05
2.4688e-05
2.46916e-05
2.46953e-05
2.4699e-05
2.47028e-05
2.47067e-05
2.47106e-05
2.47146e-05
2.47186e-05
2.47227e-05
2.47269e-05
2.47311e-05
2.47354e-05
2.47398e-05
2.47442e-05
2.47487e-05
2.47782e-05
2.46449e-05
2.46481e-05
2.46514e-05
2.46547e-05
2.4658e-05
2.46614e-05
2.46649e-05
2.46684e-05
2.46719e-05
2.46755e-05
2.46791e-05
2.46829e-05
2.46866e-05
2.46904e-05
2.46943e-05
2.46983e-05
2.47023e-05
2.47063e-05
2.47105e-05
2.47147e-05
2.47189e-05
2.47484e-05
2.46193e-05
2.46223e-05
2.46254e-05
2.46285e-05
2.46317e-05
2.46349e-05
2.46381e-05
2.46414e-05
2.46448e-05
2.46482e-05
2.46516e-05
2.46551e-05
2.46587e-05
2.46623e-05
2.46659e-05
2.46697e-05
2.46734e-05
2.46773e-05
2.46812e-05
2.46851e-05
2.46892e-05
2.47186e-05
2.45937e-05
2.45966e-05
2.45995e-05
2.46024e-05
2.46054e-05
2.46084e-05
2.46114e-05
2.46145e-05
2.46177e-05
2.46209e-05
2.46241e-05
2.46274e-05
2.46308e-05
2.46341e-05
2.46376e-05
2.46411e-05
2.46446e-05
2.46483e-05
2.46519e-05
2.46556e-05
2.46594e-05
2.46888e-05
2.45682e-05
2.45708e-05
2.45735e-05
2.45763e-05
2.45791e-05
2.45819e-05
2.45848e-05
2.45877e-05
2.45906e-05
2.45936e-05
2.45966e-05
2.45997e-05
2.46029e-05
2.4606e-05
2.46093e-05
2.46125e-05
2.46159e-05
2.46193e-05
2.46227e-05
2.46262e-05
2.46297e-05
2.46591e-05
2.45427e-05
2.45452e-05
2.45477e-05
2.45503e-05
2.45529e-05
2.45555e-05
2.45582e-05
2.45609e-05
2.45636e-05
2.45664e-05
2.45693e-05
2.45721e-05
2.45751e-05
2.4578e-05
2.4581e-05
2.45841e-05
2.45872e-05
2.45904e-05
2.45936e-05
2.45968e-05
2.46001e-05
2.46295e-05
2.45172e-05
2.45195e-05
2.45219e-05
2.45243e-05
2.45267e-05
2.45291e-05
2.45316e-05
2.45341e-05
2.45367e-05
2.45393e-05
2.45419e-05
2.45446e-05
2.45473e-05
2.45501e-05
2.45528e-05
2.45557e-05
2.45586e-05
2.45615e-05
2.45645e-05
2.45675e-05
2.45706e-05
2.45999e-05
2.44918e-05
2.44939e-05
2.44961e-05
2.44983e-05
2.45005e-05
2.45028e-05
2.45051e-05
2.45074e-05
2.45098e-05
2.45122e-05
2.45146e-05
2.4517e-05
2.45196e-05
2.45221e-05
2.45247e-05
2.45273e-05
2.453e-05
2.45327e-05
2.45354e-05
2.45382e-05
2.4541e-05
2.45703e-05
2.44664e-05
2.44683e-05
2.44703e-05
2.44723e-05
2.44744e-05
2.44765e-05
2.44786e-05
2.44807e-05
2.44829e-05
2.44851e-05
2.44873e-05
2.44895e-05
2.44918e-05
2.44942e-05
2.44965e-05
2.44989e-05
2.45014e-05
2.45039e-05
2.45064e-05
2.45089e-05
2.45115e-05
2.45408e-05
2.4441e-05
2.44428e-05
2.44446e-05
2.44464e-05
2.44483e-05
2.44502e-05
2.44521e-05
2.4454e-05
2.4456e-05
2.4458e-05
2.446e-05
2.44621e-05
2.44642e-05
2.44663e-05
2.44684e-05
2.44706e-05
2.44728e-05
2.44751e-05
2.44774e-05
2.44797e-05
2.44821e-05
2.45113e-05
2.44156e-05
2.44172e-05
2.44189e-05
2.44205e-05
2.44222e-05
2.44239e-05
2.44256e-05
2.44274e-05
2.44291e-05
2.44309e-05
2.44328e-05
2.44346e-05
2.44365e-05
2.44384e-05
2.44403e-05
2.44423e-05
2.44443e-05
2.44464e-05
2.44484e-05
2.44505e-05
2.44526e-05
2.44818e-05
2.43903e-05
2.43917e-05
2.43932e-05
2.43947e-05
2.43961e-05
2.43977e-05
2.43992e-05
2.44007e-05
2.44023e-05
2.44039e-05
2.44055e-05
2.44072e-05
2.44089e-05
2.44106e-05
2.44123e-05
2.4414e-05
2.44158e-05
2.44176e-05
2.44195e-05
2.44213e-05
2.44232e-05
2.44524e-05
2.4365e-05
2.43662e-05
2.43675e-05
2.43688e-05
2.43701e-05
2.43714e-05
2.43728e-05
2.43741e-05
2.43755e-05
2.43769e-05
2.43784e-05
2.43798e-05
2.43813e-05
2.43828e-05
2.43843e-05
2.43858e-05
2.43874e-05
2.4389e-05
2.43906e-05
2.43922e-05
2.43939e-05
2.4423e-05
2.43397e-05
2.43408e-05
2.43419e-05
2.4343e-05
2.43441e-05
2.43452e-05
2.43464e-05
2.43476e-05
2.43488e-05
2.435e-05
2.43512e-05
2.43524e-05
2.43537e-05
2.4355e-05
2.43563e-05
2.43576e-05
2.43589e-05
2.43603e-05
2.43617e-05
2.43631e-05
2.43645e-05
2.43936e-05
2.43144e-05
2.43153e-05
2.43163e-05
2.43172e-05
2.43181e-05
2.43191e-05
2.432e-05
2.4321e-05
2.4322e-05
2.4323e-05
2.43241e-05
2.43251e-05
2.43262e-05
2.43272e-05
2.43283e-05
2.43294e-05
2.43305e-05
2.43317e-05
2.43328e-05
2.4334e-05
2.43352e-05
2.43643e-05
2.42892e-05
2.42899e-05
2.42907e-05
2.42914e-05
2.42922e-05
2.42929e-05
2.42937e-05
2.42945e-05
2.42953e-05
2.42961e-05
2.42969e-05
2.42978e-05
2.42986e-05
2.42995e-05
2.43004e-05
2.43013e-05
2.43022e-05
2.43031e-05
2.4304e-05
2.4305e-05
2.43059e-05
2.4335e-05
2.4264e-05
2.42645e-05
2.42651e-05
2.42657e-05
2.42662e-05
2.42668e-05
2.42674e-05
2.4268e-05
2.42686e-05
2.42692e-05
2.42699e-05
2.42705e-05
2.42711e-05
2.42718e-05
2.42725e-05
2.42731e-05
2.42738e-05
2.42745e-05
2.42752e-05
2.4276e-05
2.42767e-05
2.43057e-05
2.42388e-05
2.42392e-05
2.42396e-05
2.42399e-05
2.42403e-05
2.42407e-05
2.42411e-05
2.42415e-05
2.4242e-05
2.42424e-05
2.42428e-05
2.42432e-05
2.42437e-05
2.42441e-05
2.42446e-05
2.42451e-05
2.42455e-05
2.4246e-05
2.42465e-05
2.4247e-05
2.42475e-05
2.42764e-05
2.42136e-05
2.42138e-05
2.4214e-05
2.42142e-05
2.42145e-05
2.42147e-05
2.42149e-05
2.42151e-05
2.42153e-05
2.42156e-05
2.42158e-05
2.4216e-05
2.42163e-05
2.42165e-05
2.42168e-05
2.4217e-05
2.42173e-05
2.42175e-05
2.42178e-05
2.4218e-05
2.42183e-05
2.42472e-05
2.41875e-05
2.41875e-05
2.41875e-05
2.41875e-05
2.41875e-05
2.41876e-05
2.41876e-05
2.41876e-05
2.41876e-05
2.41877e-05
2.41877e-05
2.41877e-05
2.41877e-05
2.41878e-05
2.41878e-05
2.41878e-05
2.41879e-05
2.41879e-05
2.41879e-05
2.41879e-05
2.4188e-05
2.42169e-05
)
;

boundaryField
{
    inlet
    {
        type            calculated;
        value           uniform 0;
    }
    outlet2
    {
        type            calculated;
        value           uniform 0;
    }
    outlet1
    {
        type            calculated;
        value           uniform 0;
    }
    wall
    {
        type            calculated;
        value           uniform 0;
    }
    symmetryBottom
    {
        type            symmetry;
    }
    symmetryZ0
    {
        type            symmetry;
    }
    symmetryZ05
    {
        type            symmetry;
    }
}


// ************************************************************************* //
