/*--------------------------------*- C++ -*----------------------------------*\
| =========                 |                                                 |
| \\      /  F ield         | OpenFOAM: The Open Source CFD Toolbox           |
|  \\    /   O peration     | Version:  2412                                  |
|   \\  /    A nd           | Website:  www.openfoam.com                      |
|    \\/     M anipulation  |                                                 |
\*---------------------------------------------------------------------------*/
FoamFile
{
    version     2.0;
    format      ascii;
    arch        "LSB;label=32;scalar=64";
    class       volScalarField;
    location    "1.16035e-06";
    object      rho_dof3;
}
// * * * * * * * * * * * * * * * * * * * * * * * * * * * * * * * * * * * * * //

dimensions      [0 0 0 0 0 0 0];

internalField   nonuniform List<scalar> 
625
(
2.48746e-07
2.17046e-07
1.83142e-07
2.48753e-07
2.17052e-07
1.83147e-07
2.48753e-07
2.17052e-07
1.83147e-07
2.48753e-07
2.17052e-07
1.83147e-07
2.48753e-07
2.17052e-07
1.83147e-07
2.48753e-07
2.17052e-07
1.83147e-07
2.48753e-07
2.17052e-07
1.83147e-07
2.48753e-07
2.17052e-07
1.83147e-07
2.48753e-07
2.17052e-07
1.83147e-07
2.48753e-07
2.17052e-07
1.83147e-07
2.48753e-07
2.17052e-07
1.83147e-07
2.48753e-07
2.17052e-07
1.83147e-07
2.48753e-07
2.17052e-07
1.83147e-07
2.48753e-07
2.17052e-07
1.83147e-07
2.48753e-07
2.17052e-07
1.83147e-07
2.48753e-07
2.17052e-07
1.83147e-07
2.48753e-07
2.17052e-07
1.83147e-07
2.48753e-07
2.17052e-07
1.83147e-07
2.48753e-07
2.17052e-07
1.83147e-07
2.48753e-07
2.17052e-07
1.83147e-07
2.48753e-07
2.17052e-07
1.83147e-07
2.48753e-07
2.17052e-07
1.83147e-07
2.48753e-07
2.17052e-07
1.83146e-07
2.48753e-07
2.17053e-07
1.82867e-07
2.48815e-07
2.171e-07
2.16684e-07
2.2439e-07
2.24392e-07
2.24394e-07
2.24396e-07
2.24398e-07
2.244e-07
2.24403e-07
2.24405e-07
2.24407e-07
2.2441e-07
2.24412e-07
2.24415e-07
2.24418e-07
2.2442e-07
2.24423e-07
2.24426e-07
2.24428e-07
2.24431e-07
2.24434e-07
2.24437e-07
2.2444e-07
2.3214e-07
2.29854e-07
2.29894e-07
2.29935e-07
2.29976e-07
2.30017e-07
2.30059e-07
2.30102e-07
2.30145e-07
2.30189e-07
2.30234e-07
2.30279e-07
2.30325e-07
2.30372e-07
2.30419e-07
2.30467e-07
2.30516e-07
2.30566e-07
2.30616e-07
2.30668e-07
2.3072e-07
2.30773e-07
2.38705e-07
2.29639e-07
2.29677e-07
2.29716e-07
2.29755e-07
2.29795e-07
2.29835e-07
2.29877e-07
2.29918e-07
2.29961e-07
2.30003e-07
2.30047e-07
2.30091e-07
2.30136e-07
2.30182e-07
2.30228e-07
2.30275e-07
2.30323e-07
2.30371e-07
2.30421e-07
2.30471e-07
2.30521e-07
2.38438e-07
2.29424e-07
2.2946e-07
2.29498e-07
2.29536e-07
2.29574e-07
2.29613e-07
2.29652e-07
2.29692e-07
2.29733e-07
2.29774e-07
2.29816e-07
2.29858e-07
2.29902e-07
2.29945e-07
2.2999e-07
2.30035e-07
2.30081e-07
2.30127e-07
2.30175e-07
2.30223e-07
2.30272e-07
2.38176e-07
2.29209e-07
2.29244e-07
2.2928e-07
2.29316e-07
2.29353e-07
2.2939e-07
2.29428e-07
2.29467e-07
2.29506e-07
2.29545e-07
2.29585e-07
2.29626e-07
2.29667e-07
2.29709e-07
2.29752e-07
2.29795e-07
2.29839e-07
2.29884e-07
2.29929e-07
2.29975e-07
2.30022e-07
2.37914e-07
2.28995e-07
2.29028e-07
2.29062e-07
2.29097e-07
2.29132e-07
2.29168e-07
2.29204e-07
2.29241e-07
2.29278e-07
2.29316e-07
2.29355e-07
2.29394e-07
2.29433e-07
2.29473e-07
2.29514e-07
2.29555e-07
2.29598e-07
2.2964e-07
2.29684e-07
2.29728e-07
2.29773e-07
2.37652e-07
2.2878e-07
2.28812e-07
2.28845e-07
2.28878e-07
2.28912e-07
2.28946e-07
2.28981e-07
2.29016e-07
2.29051e-07
2.29087e-07
2.29124e-07
2.29161e-07
2.29199e-07
2.29237e-07
2.29276e-07
2.29316e-07
2.29356e-07
2.29397e-07
2.29438e-07
2.29481e-07
2.29523e-07
2.37391e-07
2.28566e-07
2.28597e-07
2.28628e-07
2.2866e-07
2.28692e-07
2.28724e-07
2.28757e-07
2.2879e-07
2.28824e-07
2.28859e-07
2.28894e-07
2.28929e-07
2.28965e-07
2.29002e-07
2.29039e-07
2.29077e-07
2.29115e-07
2.29154e-07
2.29194e-07
2.29234e-07
2.29275e-07
2.3713e-07
2.28352e-07
2.28381e-07
2.28411e-07
2.28441e-07
2.28471e-07
2.28502e-07
2.28534e-07
2.28566e-07
2.28598e-07
2.28631e-07
2.28664e-07
2.28698e-07
2.28732e-07
2.28767e-07
2.28802e-07
2.28838e-07
2.28874e-07
2.28911e-07
2.28949e-07
2.28987e-07
2.29026e-07
2.36869e-07
2.28138e-07
2.28166e-07
2.28194e-07
2.28222e-07
2.28251e-07
2.28281e-07
2.2831e-07
2.28341e-07
2.28371e-07
2.28402e-07
2.28434e-07
2.28466e-07
2.28498e-07
2.28531e-07
2.28565e-07
2.28599e-07
2.28633e-07
2.28669e-07
2.28704e-07
2.2874e-07
2.28777e-07
2.36608e-07
2.27921e-07
2.27947e-07
2.27974e-07
2.28001e-07
2.28028e-07
2.28056e-07
2.28084e-07
2.28113e-07
2.28141e-07
2.28171e-07
2.28201e-07
2.28231e-07
2.28262e-07
2.28293e-07
2.28324e-07
2.28357e-07
2.28389e-07
2.28422e-07
2.28456e-07
2.2849e-07
2.28525e-07
2.36344e-07
2.27704e-07
2.27729e-07
2.27754e-07
2.27779e-07
2.27805e-07
2.27831e-07
2.27858e-07
2.27885e-07
2.27912e-07
2.2794e-07
2.27968e-07
2.27996e-07
2.28025e-07
2.28054e-07
2.28084e-07
2.28115e-07
2.28145e-07
2.28177e-07
2.28208e-07
2.2824e-07
2.28273e-07
2.3608e-07
2.27488e-07
2.27511e-07
2.27534e-07
2.27558e-07
2.27582e-07
2.27607e-07
2.27632e-07
2.27657e-07
2.27682e-07
2.27708e-07
2.27735e-07
2.27762e-07
2.27789e-07
2.27816e-07
2.27844e-07
2.27873e-07
2.27901e-07
2.27931e-07
2.27961e-07
2.27991e-07
2.28022e-07
2.35817e-07
2.27271e-07
2.27293e-07
2.27315e-07
2.27337e-07
2.2736e-07
2.27383e-07
2.27406e-07
2.27429e-07
2.27453e-07
2.27478e-07
2.27502e-07
2.27527e-07
2.27552e-07
2.27578e-07
2.27604e-07
2.27631e-07
2.27658e-07
2.27685e-07
2.27713e-07
2.27741e-07
2.2777e-07
2.35554e-07
2.27055e-07
2.27075e-07
2.27096e-07
2.27116e-07
2.27137e-07
2.27158e-07
2.2718e-07
2.27202e-07
2.27224e-07
2.27247e-07
2.2727e-07
2.27293e-07
2.27317e-07
2.27341e-07
2.27365e-07
2.2739e-07
2.27415e-07
2.2744e-07
2.27466e-07
2.27492e-07
2.27519e-07
2.35291e-07
2.26839e-07
2.26857e-07
2.26876e-07
2.26896e-07
2.26915e-07
2.26935e-07
2.26955e-07
2.26975e-07
2.26995e-07
2.27016e-07
2.27037e-07
2.27059e-07
2.27081e-07
2.27103e-07
2.27125e-07
2.27148e-07
2.27172e-07
2.27195e-07
2.27219e-07
2.27243e-07
2.27268e-07
2.35029e-07
2.26623e-07
2.2664e-07
2.26657e-07
2.26675e-07
2.26693e-07
2.26711e-07
2.26729e-07
2.26748e-07
2.26767e-07
2.26786e-07
2.26805e-07
2.26825e-07
2.26845e-07
2.26866e-07
2.26886e-07
2.26907e-07
2.26929e-07
2.2695e-07
2.26972e-07
2.26995e-07
2.27017e-07
2.34766e-07
2.26407e-07
2.26423e-07
2.26439e-07
2.26455e-07
2.26471e-07
2.26487e-07
2.26504e-07
2.26521e-07
2.26538e-07
2.26556e-07
2.26574e-07
2.26592e-07
2.2661e-07
2.26629e-07
2.26647e-07
2.26667e-07
2.26686e-07
2.26706e-07
2.26726e-07
2.26746e-07
2.26767e-07
2.34504e-07
2.26192e-07
2.26206e-07
2.2622e-07
2.26235e-07
2.26249e-07
2.26264e-07
2.26279e-07
2.26295e-07
2.2631e-07
2.26326e-07
2.26342e-07
2.26358e-07
2.26375e-07
2.26392e-07
2.26409e-07
2.26426e-07
2.26444e-07
2.26461e-07
2.2648e-07
2.26498e-07
2.26517e-07
2.34242e-07
2.25976e-07
2.25989e-07
2.26002e-07
2.26015e-07
2.26028e-07
2.26041e-07
2.26055e-07
2.26068e-07
2.26082e-07
2.26096e-07
2.26111e-07
2.26125e-07
2.2614e-07
2.26155e-07
2.2617e-07
2.26186e-07
2.26201e-07
2.26217e-07
2.26234e-07
2.2625e-07
2.26267e-07
2.33981e-07
2.25761e-07
2.25772e-07
2.25783e-07
2.25795e-07
2.25806e-07
2.25818e-07
2.2583e-07
2.25842e-07
2.25854e-07
2.25867e-07
2.2588e-07
2.25892e-07
2.25905e-07
2.25919e-07
2.25932e-07
2.25946e-07
2.25959e-07
2.25974e-07
2.25988e-07
2.26002e-07
2.26017e-07
2.33719e-07
2.25546e-07
2.25556e-07
2.25565e-07
2.25575e-07
2.25585e-07
2.25595e-07
2.25606e-07
2.25616e-07
2.25627e-07
2.25638e-07
2.25649e-07
2.2566e-07
2.25671e-07
2.25682e-07
2.25694e-07
2.25706e-07
2.25718e-07
2.2573e-07
2.25742e-07
2.25755e-07
2.25768e-07
2.33458e-07
2.25331e-07
2.25339e-07
2.25348e-07
2.25356e-07
2.25364e-07
2.25373e-07
2.25382e-07
2.2539e-07
2.25399e-07
2.25409e-07
2.25418e-07
2.25427e-07
2.25437e-07
2.25446e-07
2.25456e-07
2.25466e-07
2.25476e-07
2.25486e-07
2.25497e-07
2.25508e-07
2.25518e-07
2.33198e-07
2.25117e-07
2.25123e-07
2.2513e-07
2.25137e-07
2.25144e-07
2.25151e-07
2.25158e-07
2.25165e-07
2.25172e-07
2.2518e-07
2.25187e-07
2.25195e-07
2.25203e-07
2.25211e-07
2.25219e-07
2.25227e-07
2.25235e-07
2.25244e-07
2.25252e-07
2.25261e-07
2.2527e-07
2.32937e-07
2.24953e-07
2.24959e-07
2.24964e-07
2.2497e-07
2.24976e-07
2.24981e-07
2.24987e-07
2.24993e-07
2.24999e-07
2.25006e-07
2.25012e-07
2.25018e-07
2.25025e-07
2.25031e-07
2.25038e-07
2.25045e-07
2.25051e-07
2.25058e-07
2.25065e-07
2.25073e-07
2.2508e-07
2.3273e-07
)
;

boundaryField
{
    inlet
    {
        type            calculated;
        value           uniform 0;
    }
    outlet2
    {
        type            calculated;
        value           uniform 0;
    }
    outlet1
    {
        type            calculated;
        value           uniform 0;
    }
    wall
    {
        type            calculated;
        value           uniform 0;
    }
    symmetryBottom
    {
        type            symmetry;
    }
    symmetryZ0
    {
        type            symmetry;
    }
    symmetryZ05
    {
        type            symmetry;
    }
}


// ************************************************************************* //
