/*--------------------------------*- C++ -*----------------------------------*\
| =========                 |                                                 |
| \\      /  F ield         | OpenFOAM: The Open Source CFD Toolbox           |
|  \\    /   O peration     | Version:  2412                                  |
|   \\  /    A nd           | Website:  www.openfoam.com                      |
|    \\/     M anipulation  |                                                 |
\*---------------------------------------------------------------------------*/
FoamFile
{
    version     2.0;
    format      ascii;
    arch        "LSB;label=32;scalar=64";
    class       volScalarField;
    location    "1.16035e-06";
    object      rho_dof1;
}
// * * * * * * * * * * * * * * * * * * * * * * * * * * * * * * * * * * * * * //

dimensions      [0 0 0 0 0 0 0];

internalField   nonuniform List<scalar> 
625
(
1.36811e-05
-9.1349e-13
-7.81487e-09
1.36813e-05
-9.13477e-13
-7.74566e-10
1.36813e-05
-9.13501e-13
-3.14315e-09
1.36813e-05
-9.13501e-13
-3.13263e-09
1.36813e-05
-9.13501e-13
-3.13266e-09
1.36813e-05
-9.13501e-13
-3.13266e-09
1.36813e-05
-9.13501e-13
-3.13266e-09
1.36813e-05
-9.13501e-13
-3.13266e-09
1.36813e-05
-9.13501e-13
-3.13266e-09
1.36813e-05
-9.13501e-13
-3.13266e-09
1.36813e-05
-9.13501e-13
-3.13266e-09
1.36813e-05
-9.13501e-13
-3.13266e-09
1.36813e-05
-9.13501e-13
-3.13266e-09
1.36813e-05
-9.13501e-13
-3.13266e-09
1.36813e-05
-9.13501e-13
-3.13266e-09
1.36813e-05
-9.13501e-13
-3.13266e-09
1.36813e-05
-9.13501e-13
-3.13266e-09
1.36813e-05
-9.13501e-13
-3.13266e-09
1.36813e-05
-9.13501e-13
-3.13266e-09
1.36813e-05
-9.13501e-13
-3.13266e-09
1.36813e-05
-9.13501e-13
-3.13266e-09
1.36813e-05
-9.13501e-13
-3.13266e-09
1.36813e-05
-9.13501e-13
-3.13243e-09
1.36814e-05
-9.13502e-13
-3.2084e-09
1.36845e-05
-9.13917e-13
-3.18029e-10
-3.26611e-08
-3.28863e-08
-3.31147e-08
-3.33463e-08
-3.35812e-08
-3.38193e-08
-3.40609e-08
-3.4306e-08
-3.45546e-08
-3.48068e-08
-3.50628e-08
-3.53226e-08
-3.55862e-08
-3.58538e-08
-3.61254e-08
-3.64013e-08
-3.66813e-08
-3.69657e-08
-3.72545e-08
-3.7548e-08
-3.7846e-08
-1.96518e-06
-3.34584e-08
-3.36947e-08
-3.39343e-08
-3.41774e-08
-3.4424e-08
-3.46742e-08
-3.4928e-08
-3.51855e-08
-3.54469e-08
-3.57123e-08
-3.59815e-08
-3.62549e-08
-3.65326e-08
-3.68144e-08
-3.71007e-08
-3.73914e-08
-3.76867e-08
-3.79867e-08
-3.82916e-08
-3.86014e-08
-3.89162e-08
7.58142e-08
-3.34261e-08
-3.3662e-08
-3.39011e-08
-3.41437e-08
-3.43898e-08
-3.46395e-08
-3.48928e-08
-3.51499e-08
-3.54107e-08
-3.56755e-08
-3.59443e-08
-3.62171e-08
-3.64941e-08
-3.67754e-08
-3.7061e-08
-3.73511e-08
-3.76458e-08
-3.79452e-08
-3.82494e-08
-3.85585e-08
-3.88726e-08
3.64665e-08
-3.33944e-08
-3.36298e-08
-3.38685e-08
-3.41107e-08
-3.43563e-08
-3.46055e-08
-3.48583e-08
-3.51148e-08
-3.53752e-08
-3.56394e-08
-3.59076e-08
-3.61799e-08
-3.64564e-08
-3.67371e-08
-3.70221e-08
-3.73116e-08
-3.76057e-08
-3.79045e-08
-3.8208e-08
-3.85164e-08
-3.88298e-08
3.6719e-08
-3.33627e-08
-3.35977e-08
-3.38359e-08
-3.40776e-08
-3.43227e-08
-3.45715e-08
-3.48238e-08
-3.50798e-08
-3.53397e-08
-3.56034e-08
-3.5871e-08
-3.61428e-08
-3.64187e-08
-3.66988e-08
-3.69833e-08
-3.72722e-08
-3.75656e-08
-3.78637e-08
-3.81666e-08
-3.84744e-08
-3.87872e-08
3.70008e-08
-3.3331e-08
-3.35655e-08
-3.38034e-08
-3.40446e-08
-3.42893e-08
-3.45375e-08
-3.47893e-08
-3.50448e-08
-3.53042e-08
-3.55673e-08
-3.58345e-08
-3.61057e-08
-3.6381e-08
-3.66606e-08
-3.69444e-08
-3.72327e-08
-3.75256e-08
-3.78231e-08
-3.81253e-08
-3.84324e-08
-3.87445e-08
3.72864e-08
-3.32994e-08
-3.35335e-08
-3.37708e-08
-3.40116e-08
-3.42558e-08
-3.45035e-08
-3.47549e-08
-3.50099e-08
-3.52687e-08
-3.55314e-08
-3.5798e-08
-3.60686e-08
-3.63434e-08
-3.66223e-08
-3.69056e-08
-3.71933e-08
-3.74855e-08
-3.77824e-08
-3.8084e-08
-3.83904e-08
-3.87019e-08
3.75794e-08
-3.32678e-08
-3.35014e-08
-3.37383e-08
-3.39786e-08
-3.42223e-08
-3.44696e-08
-3.47204e-08
-3.4975e-08
-3.52333e-08
-3.54954e-08
-3.57615e-08
-3.60316e-08
-3.63057e-08
-3.65842e-08
-3.68669e-08
-3.7154e-08
-3.74456e-08
-3.77418e-08
-3.80428e-08
-3.83485e-08
-3.86593e-08
3.788e-08
-3.32362e-08
-3.34694e-08
-3.37058e-08
-3.39456e-08
-3.41889e-08
-3.44357e-08
-3.46861e-08
-3.49401e-08
-3.51979e-08
-3.54595e-08
-3.5725e-08
-3.59945e-08
-3.62682e-08
-3.6546e-08
-3.68281e-08
-3.71147e-08
-3.74056e-08
-3.77013e-08
-3.80015e-08
-3.83067e-08
-3.86168e-08
3.81881e-08
-3.32046e-08
-3.34373e-08
-3.36733e-08
-3.39127e-08
-3.41555e-08
-3.44018e-08
-3.46517e-08
-3.49052e-08
-3.51625e-08
-3.54236e-08
-3.56886e-08
-3.59576e-08
-3.62306e-08
-3.65079e-08
-3.67894e-08
-3.70753e-08
-3.73657e-08
-3.76607e-08
-3.79604e-08
-3.82648e-08
-3.85742e-08
3.84993e-08
-3.31726e-08
-3.34049e-08
-3.36405e-08
-3.38794e-08
-3.41217e-08
-3.43675e-08
-3.46169e-08
-3.48699e-08
-3.51267e-08
-3.53872e-08
-3.56517e-08
-3.59201e-08
-3.61926e-08
-3.64693e-08
-3.67503e-08
-3.70356e-08
-3.73253e-08
-3.76197e-08
-3.79187e-08
-3.82225e-08
-3.85312e-08
3.85981e-08
-3.31407e-08
-3.33725e-08
-3.36077e-08
-3.38461e-08
-3.40879e-08
-3.43332e-08
-3.45821e-08
-3.48346e-08
-3.50909e-08
-3.53509e-08
-3.56148e-08
-3.58827e-08
-3.61547e-08
-3.64308e-08
-3.67111e-08
-3.69958e-08
-3.7285e-08
-3.75787e-08
-3.7877e-08
-3.81802e-08
-3.84882e-08
3.86765e-08
-3.31088e-08
-3.33402e-08
-3.35748e-08
-3.38128e-08
-3.40542e-08
-3.4299e-08
-3.45474e-08
-3.47994e-08
-3.50551e-08
-3.53147e-08
-3.5578e-08
-3.58453e-08
-3.61168e-08
-3.63923e-08
-3.6672e-08
-3.69561e-08
-3.72447e-08
-3.75377e-08
-3.78354e-08
-3.81379e-08
-3.84453e-08
3.87574e-08
-3.30769e-08
-3.33078e-08
-3.3542e-08
-3.37796e-08
-3.40205e-08
-3.42648e-08
-3.45127e-08
-3.47642e-08
-3.50194e-08
-3.52784e-08
-3.55412e-08
-3.5808e-08
-3.60788e-08
-3.63538e-08
-3.6633e-08
-3.69165e-08
-3.72044e-08
-3.74968e-08
-3.77939e-08
-3.80957e-08
-3.84024e-08
3.88417e-08
-3.3045e-08
-3.32755e-08
-3.35093e-08
-3.37463e-08
-3.39868e-08
-3.42306e-08
-3.4478e-08
-3.47291e-08
-3.49837e-08
-3.52422e-08
-3.55045e-08
-3.57707e-08
-3.6041e-08
-3.63154e-08
-3.65939e-08
-3.68768e-08
-3.71641e-08
-3.74559e-08
-3.77524e-08
-3.80535e-08
-3.83595e-08
3.89293e-08
-3.30132e-08
-3.32433e-08
-3.34765e-08
-3.37131e-08
-3.39531e-08
-3.41965e-08
-3.44434e-08
-3.46939e-08
-3.49481e-08
-3.5206e-08
-3.54678e-08
-3.57334e-08
-3.60032e-08
-3.62769e-08
-3.65549e-08
-3.68372e-08
-3.71239e-08
-3.74151e-08
-3.77109e-08
-3.80113e-08
-3.83167e-08
3.90201e-08
-3.29814e-08
-3.3211e-08
-3.34439e-08
-3.368e-08
-3.39195e-08
-3.41624e-08
-3.44088e-08
-3.46588e-08
-3.49125e-08
-3.51699e-08
-3.54311e-08
-3.56962e-08
-3.59653e-08
-3.62386e-08
-3.6516e-08
-3.67977e-08
-3.70837e-08
-3.73743e-08
-3.76694e-08
-3.79693e-08
-3.82739e-08
3.91143e-08
-3.29496e-08
-3.31788e-08
-3.34112e-08
-3.36469e-08
-3.38859e-08
-3.41283e-08
-3.43742e-08
-3.46237e-08
-3.48769e-08
-3.51338e-08
-3.53944e-08
-3.5659e-08
-3.59276e-08
-3.62002e-08
-3.64771e-08
-3.67582e-08
-3.70436e-08
-3.73335e-08
-3.7628e-08
-3.79272e-08
-3.82312e-08
3.92117e-08
-3.29179e-08
-3.31466e-08
-3.33785e-08
-3.36137e-08
-3.38523e-08
-3.40943e-08
-3.43397e-08
-3.45887e-08
-3.48413e-08
-3.50977e-08
-3.53578e-08
-3.56219e-08
-3.58899e-08
-3.6162e-08
-3.64382e-08
-3.67187e-08
-3.70035e-08
-3.72928e-08
-3.75867e-08
-3.78852e-08
-3.81885e-08
3.93123e-08
-3.28861e-08
-3.31145e-08
-3.33459e-08
-3.35807e-08
-3.38188e-08
-3.40602e-08
-3.43052e-08
-3.45537e-08
-3.48058e-08
-3.50616e-08
-3.53212e-08
-3.55847e-08
-3.58522e-08
-3.61237e-08
-3.63993e-08
-3.66792e-08
-3.69634e-08
-3.72521e-08
-3.75453e-08
-3.78432e-08
-3.81458e-08
3.94163e-08
-3.28544e-08
-3.30823e-08
-3.33133e-08
-3.35476e-08
-3.37852e-08
-3.40262e-08
-3.42707e-08
-3.45187e-08
-3.47703e-08
-3.50256e-08
-3.52847e-08
-3.55476e-08
-3.58145e-08
-3.60855e-08
-3.63605e-08
-3.66398e-08
-3.69235e-08
-3.72115e-08
-3.75041e-08
-3.78013e-08
-3.81032e-08
3.95235e-08
-3.28228e-08
-3.30502e-08
-3.32808e-08
-3.35146e-08
-3.37517e-08
-3.39923e-08
-3.42362e-08
-3.44837e-08
-3.47348e-08
-3.49896e-08
-3.52482e-08
-3.55106e-08
-3.57769e-08
-3.60473e-08
-3.63218e-08
-3.66005e-08
-3.68834e-08
-3.71709e-08
-3.74628e-08
-3.77593e-08
-3.80606e-08
3.9634e-08
-3.27911e-08
-3.30181e-08
-3.32483e-08
-3.34816e-08
-3.37183e-08
-3.39583e-08
-3.42018e-08
-3.44488e-08
-3.46994e-08
-3.49537e-08
-3.52117e-08
-3.54735e-08
-3.57393e-08
-3.60091e-08
-3.6283e-08
-3.65611e-08
-3.68435e-08
-3.71303e-08
-3.74216e-08
-3.77175e-08
-3.80181e-08
3.97478e-08
-3.27595e-08
-3.29861e-08
-3.32158e-08
-3.34487e-08
-3.36849e-08
-3.39245e-08
-3.41674e-08
-3.44139e-08
-3.4664e-08
-3.49178e-08
-3.51752e-08
-3.54366e-08
-3.57018e-08
-3.5971e-08
-3.62444e-08
-3.65218e-08
-3.68037e-08
-3.70898e-08
-3.73805e-08
-3.76757e-08
-3.79757e-08
3.98468e-08
-3.27343e-08
-3.29605e-08
-3.31899e-08
-3.34224e-08
-3.36582e-08
-3.38974e-08
-3.414e-08
-3.43861e-08
-3.46358e-08
-3.48891e-08
-3.51462e-08
-3.54071e-08
-3.56719e-08
-3.59407e-08
-3.62135e-08
-3.64906e-08
-3.67718e-08
-3.70575e-08
-3.73477e-08
-3.76424e-08
-3.79418e-08
4.33434e-08
)
;

boundaryField
{
    inlet
    {
        type            calculated;
        value           uniform 0;
    }
    outlet2
    {
        type            calculated;
        value           uniform 0;
    }
    outlet1
    {
        type            calculated;
        value           uniform 0;
    }
    wall
    {
        type            calculated;
        value           uniform 0;
    }
    symmetryBottom
    {
        type            symmetry;
    }
    symmetryZ0
    {
        type            symmetry;
    }
    symmetryZ05
    {
        type            symmetry;
    }
}


// ************************************************************************* //
