/*--------------------------------*- C++ -*----------------------------------*\
| =========                 |                                                 |
| \\      /  F ield         | OpenFOAM: The Open Source CFD Toolbox           |
|  \\    /   O peration     | Version:  2412                                  |
|   \\  /    A nd           | Website:  www.openfoam.com                      |
|    \\/     M anipulation  |                                                 |
\*---------------------------------------------------------------------------*/
FoamFile
{
    version     2.0;
    format      ascii;
    arch        "LSB;label=32;scalar=64";
    class       volScalarField;
    location    "1.16035e-06";
    object      rho_dof2;
}
// * * * * * * * * * * * * * * * * * * * * * * * * * * * * * * * * * * * * * //

dimensions      [0 0 0 0 0 0 0];

internalField   nonuniform List<scalar> 
625
(
4.56592e-09
7.80616e-09
-4.41697e-11
-3.3247e-09
6.74156e-10
-1.84642e-10
-6.90317e-10
3.0424e-09
-1.84356e-10
-7.01845e-10
3.03188e-09
-1.84357e-10
-7.0181e-10
3.03191e-09
-1.84357e-10
-7.0181e-10
3.03191e-09
-1.84357e-10
-7.0181e-10
3.03191e-09
-1.84357e-10
-7.0181e-10
3.03191e-09
-1.84357e-10
-7.0181e-10
3.03191e-09
-1.84357e-10
-7.0181e-10
3.03191e-09
-1.84357e-10
-7.0181e-10
3.03191e-09
-1.84357e-10
-7.0181e-10
3.03191e-09
-1.84357e-10
-7.0181e-10
3.03191e-09
-1.84357e-10
-7.0181e-10
3.03191e-09
-1.84357e-10
-7.0181e-10
3.03191e-09
-1.84357e-10
-7.0181e-10
3.03191e-09
-1.84357e-10
-7.0181e-10
3.03191e-09
-1.84357e-10
-7.0181e-10
3.03191e-09
-1.84357e-10
-7.0181e-10
3.03191e-09
-1.84357e-10
-7.0181e-10
3.03191e-09
-1.84357e-10
-7.0181e-10
3.03191e-09
-1.84357e-10
-7.0181e-10
3.03191e-09
-1.84356e-10
-7.01807e-10
3.03187e-09
-1.83894e-10
-7.02871e-10
3.04672e-09
1.76045e-10
-2.53285e-10
-2.65521e-10
-3.36411e-10
1.71506e-06
1.726e-06
1.73708e-06
1.7483e-06
1.75967e-06
1.77117e-06
1.78283e-06
1.79463e-06
1.80659e-06
1.81871e-06
1.83098e-06
1.84341e-06
1.85601e-06
1.86878e-06
1.88172e-06
1.89483e-06
1.90813e-06
1.9216e-06
1.93526e-06
1.9491e-06
1.96314e-06
1.06934e-11
-6.00392e-08
-6.06745e-08
-6.13218e-08
-6.19813e-08
-6.26535e-08
-6.33387e-08
-6.40371e-08
-6.47492e-08
-6.54754e-08
-6.6216e-08
-6.69715e-08
-6.77422e-08
-6.85287e-08
-6.93313e-08
-7.01506e-08
-7.0987e-08
-7.1841e-08
-7.27131e-08
-7.36039e-08
-7.4514e-08
-7.5444e-08
-2.18048e-10
-3.09034e-08
-3.11297e-08
-3.13592e-08
-3.15921e-08
-3.18286e-08
-3.20685e-08
-3.23122e-08
-3.25595e-08
-3.28107e-08
-3.30657e-08
-3.33248e-08
-3.35879e-08
-3.38552e-08
-3.41268e-08
-3.44028e-08
-3.46832e-08
-3.49683e-08
-3.52581e-08
-3.55527e-08
-3.58523e-08
-3.61569e-08
-2.21943e-10
-3.11526e-08
-3.13794e-08
-3.16094e-08
-3.18429e-08
-3.20798e-08
-3.23202e-08
-3.25643e-08
-3.2812e-08
-3.30636e-08
-3.3319e-08
-3.35784e-08
-3.38418e-08
-3.41094e-08
-3.43812e-08
-3.46574e-08
-3.4938e-08
-3.52232e-08
-3.5513e-08
-3.58077e-08
-3.61072e-08
-3.64118e-08
-2.21689e-10
-3.14152e-08
-3.1643e-08
-3.18741e-08
-3.21087e-08
-3.23466e-08
-3.25882e-08
-3.28333e-08
-3.30821e-08
-3.33347e-08
-3.35913e-08
-3.38517e-08
-3.41162e-08
-3.4385e-08
-3.46579e-08
-3.49352e-08
-3.52169e-08
-3.55032e-08
-3.57942e-08
-3.609e-08
-3.63906e-08
-3.66964e-08
-2.21486e-10
-3.16813e-08
-3.19102e-08
-3.21424e-08
-3.2378e-08
-3.26171e-08
-3.28596e-08
-3.31059e-08
-3.33558e-08
-3.36096e-08
-3.38672e-08
-3.41288e-08
-3.43944e-08
-3.46642e-08
-3.49382e-08
-3.52166e-08
-3.54995e-08
-3.57869e-08
-3.6079e-08
-3.63759e-08
-3.66777e-08
-3.69845e-08
-2.21282e-10
-3.19531e-08
-3.21831e-08
-3.24165e-08
-3.26532e-08
-3.28934e-08
-3.31372e-08
-3.33846e-08
-3.36357e-08
-3.38906e-08
-3.41495e-08
-3.44122e-08
-3.46791e-08
-3.49501e-08
-3.52253e-08
-3.5505e-08
-3.5789e-08
-3.60777e-08
-3.6371e-08
-3.66692e-08
-3.69722e-08
-3.72803e-08
-2.21078e-10
-3.22305e-08
-3.24617e-08
-3.26963e-08
-3.29343e-08
-3.31757e-08
-3.34208e-08
-3.36694e-08
-3.39219e-08
-3.4178e-08
-3.44381e-08
-3.47022e-08
-3.49703e-08
-3.52426e-08
-3.55192e-08
-3.58002e-08
-3.60855e-08
-3.63756e-08
-3.66702e-08
-3.69697e-08
-3.72741e-08
-3.75835e-08
-2.20875e-10
-3.25135e-08
-3.27461e-08
-3.29819e-08
-3.32212e-08
-3.34641e-08
-3.37104e-08
-3.39605e-08
-3.42142e-08
-3.44717e-08
-3.47332e-08
-3.49987e-08
-3.52682e-08
-3.55419e-08
-3.58199e-08
-3.61022e-08
-3.63891e-08
-3.66805e-08
-3.69766e-08
-3.72775e-08
-3.75834e-08
-3.78943e-08
-2.20672e-10
-3.27979e-08
-3.30318e-08
-3.32691e-08
-3.35098e-08
-3.3754e-08
-3.40019e-08
-3.42533e-08
-3.45085e-08
-3.47675e-08
-3.50304e-08
-3.52974e-08
-3.55684e-08
-3.58436e-08
-3.61231e-08
-3.6407e-08
-3.66953e-08
-3.69883e-08
-3.7286e-08
-3.75885e-08
-3.78959e-08
-3.82084e-08
-2.20401e-10
-3.29069e-08
-3.3141e-08
-3.33784e-08
-3.36193e-08
-3.38637e-08
-3.41116e-08
-3.43632e-08
-3.46185e-08
-3.48776e-08
-3.51406e-08
-3.54077e-08
-3.56788e-08
-3.59541e-08
-3.62336e-08
-3.65176e-08
-3.6806e-08
-3.7099e-08
-3.73967e-08
-3.76992e-08
-3.80066e-08
-3.83191e-08
-2.20228e-10
-3.30106e-08
-3.32446e-08
-3.34821e-08
-3.37229e-08
-3.39672e-08
-3.4215e-08
-3.44666e-08
-3.47218e-08
-3.49808e-08
-3.52437e-08
-3.55106e-08
-3.57816e-08
-3.60567e-08
-3.63361e-08
-3.66198e-08
-3.69081e-08
-3.72008e-08
-3.74983e-08
-3.78005e-08
-3.81077e-08
-3.84198e-08
-2.20306e-10
-3.31166e-08
-3.33507e-08
-3.35881e-08
-3.38289e-08
-3.40731e-08
-3.4321e-08
-3.45724e-08
-3.48276e-08
-3.50866e-08
-3.53494e-08
-3.56162e-08
-3.58871e-08
-3.61621e-08
-3.64413e-08
-3.67249e-08
-3.70129e-08
-3.73055e-08
-3.76027e-08
-3.79048e-08
-3.82117e-08
-3.85236e-08
-2.20346e-10
-3.3225e-08
-3.34591e-08
-3.36966e-08
-3.39374e-08
-3.41817e-08
-3.44295e-08
-3.4681e-08
-3.49362e-08
-3.51951e-08
-3.54579e-08
-3.57246e-08
-3.59954e-08
-3.62703e-08
-3.65495e-08
-3.6833e-08
-3.71209e-08
-3.74133e-08
-3.77104e-08
-3.80122e-08
-3.83189e-08
-3.86306e-08
-2.20386e-10
-3.33359e-08
-3.35701e-08
-3.38076e-08
-3.40485e-08
-3.42928e-08
-3.45407e-08
-3.47922e-08
-3.50474e-08
-3.53063e-08
-3.55691e-08
-3.58358e-08
-3.61066e-08
-3.63815e-08
-3.66606e-08
-3.6944e-08
-3.72318e-08
-3.75242e-08
-3.78212e-08
-3.81229e-08
-3.84294e-08
-3.87409e-08
-2.20425e-10
-3.34492e-08
-3.36835e-08
-3.39211e-08
-3.41621e-08
-3.44065e-08
-3.46545e-08
-3.4906e-08
-3.51613e-08
-3.54203e-08
-3.56831e-08
-3.59499e-08
-3.62206e-08
-3.64956e-08
-3.67746e-08
-3.7058e-08
-3.73458e-08
-3.76382e-08
-3.7935e-08
-3.82367e-08
-3.85431e-08
-3.88546e-08
-2.20465e-10
-3.35649e-08
-3.37993e-08
-3.40371e-08
-3.42782e-08
-3.45228e-08
-3.47708e-08
-3.50225e-08
-3.52778e-08
-3.5537e-08
-3.57999e-08
-3.60667e-08
-3.63376e-08
-3.66125e-08
-3.68917e-08
-3.7175e-08
-3.74629e-08
-3.77552e-08
-3.80521e-08
-3.83537e-08
-3.86601e-08
-3.89714e-08
-2.20504e-10
-3.3683e-08
-3.39176e-08
-3.41555e-08
-3.43969e-08
-3.46416e-08
-3.48898e-08
-3.51416e-08
-3.53971e-08
-3.56563e-08
-3.59194e-08
-3.61863e-08
-3.64573e-08
-3.67323e-08
-3.70115e-08
-3.72951e-08
-3.75829e-08
-3.78753e-08
-3.81722e-08
-3.84738e-08
-3.87803e-08
-3.90916e-08
-2.20543e-10
-3.38035e-08
-3.40383e-08
-3.42765e-08
-3.4518e-08
-3.47629e-08
-3.50114e-08
-3.52634e-08
-3.5519e-08
-3.57784e-08
-3.60416e-08
-3.63088e-08
-3.65799e-08
-3.6855e-08
-3.71344e-08
-3.7418e-08
-3.7706e-08
-3.79985e-08
-3.82955e-08
-3.85972e-08
-3.89037e-08
-3.92151e-08
-2.20581e-10
-3.39264e-08
-3.41615e-08
-3.43999e-08
-3.46417e-08
-3.48869e-08
-3.51355e-08
-3.53878e-08
-3.56436e-08
-3.59032e-08
-3.61667e-08
-3.6434e-08
-3.67053e-08
-3.69806e-08
-3.72601e-08
-3.75439e-08
-3.78321e-08
-3.81247e-08
-3.84219e-08
-3.87237e-08
-3.90303e-08
-3.93418e-08
-2.20619e-10
-3.40517e-08
-3.42871e-08
-3.45258e-08
-3.47679e-08
-3.50133e-08
-3.52622e-08
-3.55147e-08
-3.57709e-08
-3.60307e-08
-3.62944e-08
-3.6562e-08
-3.68335e-08
-3.71091e-08
-3.73888e-08
-3.76728e-08
-3.79612e-08
-3.8254e-08
-3.85513e-08
-3.88533e-08
-3.91601e-08
-3.94717e-08
-2.20657e-10
-3.41795e-08
-3.44152e-08
-3.46542e-08
-3.48965e-08
-3.51423e-08
-3.53915e-08
-3.56443e-08
-3.59008e-08
-3.61609e-08
-3.64249e-08
-3.66927e-08
-3.69645e-08
-3.72404e-08
-3.75204e-08
-3.78047e-08
-3.80933e-08
-3.83863e-08
-3.86839e-08
-3.89861e-08
-3.92931e-08
-3.9605e-08
-2.20694e-10
-3.43096e-08
-3.45457e-08
-3.4785e-08
-3.50277e-08
-3.52738e-08
-3.55234e-08
-3.57766e-08
-3.60334e-08
-3.62939e-08
-3.65581e-08
-3.68263e-08
-3.70985e-08
-3.73746e-08
-3.7655e-08
-3.79395e-08
-3.82284e-08
-3.85217e-08
-3.88196e-08
-3.91221e-08
-3.94294e-08
-3.97415e-08
-2.20731e-10
-3.4428e-08
-3.46643e-08
-3.49038e-08
-3.51467e-08
-3.5393e-08
-3.56428e-08
-3.58961e-08
-3.6153e-08
-3.64137e-08
-3.66781e-08
-3.69464e-08
-3.72187e-08
-3.7495e-08
-3.77754e-08
-3.80601e-08
-3.8349e-08
-3.86425e-08
-3.89404e-08
-3.9243e-08
-3.95502e-08
-3.98624e-08
-2.20784e-10
-3.76182e-08
-3.78766e-08
-3.81386e-08
-3.84043e-08
-3.86737e-08
-3.89469e-08
-3.9224e-08
-3.95051e-08
-3.97902e-08
-4.00795e-08
-4.0373e-08
-4.06708e-08
-4.09731e-08
-4.12799e-08
-4.15913e-08
-4.19075e-08
-4.22285e-08
-4.25545e-08
-4.28855e-08
-4.32217e-08
-4.35633e-08
-2.24415e-10
)
;

boundaryField
{
    inlet
    {
        type            calculated;
        value           uniform 0;
    }
    outlet2
    {
        type            calculated;
        value           uniform 0;
    }
    outlet1
    {
        type            calculated;
        value           uniform 0;
    }
    wall
    {
        type            calculated;
        value           uniform 0;
    }
    symmetryBottom
    {
        type            symmetry;
    }
    symmetryZ0
    {
        type            symmetry;
    }
    symmetryZ05
    {
        type            symmetry;
    }
}


// ************************************************************************* //
