/*--------------------------------*- C++ -*----------------------------------*\
| =========                 |                                                 |
| \\      /  F ield         | OpenFOAM: The Open Source CFD Toolbox           |
|  \\    /   O peration     | Version:  2412                                  |
|   \\  /    A nd           | Website:  www.openfoam.com                      |
|    \\/     M anipulation  |                                                 |
\*---------------------------------------------------------------------------*/
FoamFile
{
    version     2.0;
    format      ascii;
    arch        "LSB;label=32;scalar=64";
    class       volScalarField;
    location    "1.16035e-06";
    object      rho_dof0;
}
// * * * * * * * * * * * * * * * * * * * * * * * * * * * * * * * * * * * * * //

dimensions      [0 0 0 0 0 0 0];

internalField   nonuniform List<scalar> 
625
(
2.87078e-05
2.33715e-05
2.33715e-05
2.87087e-05
2.33723e-05
2.33723e-05
2.87079e-05
2.33715e-05
2.33715e-05
2.87079e-05
2.33715e-05
2.33715e-05
2.87079e-05
2.33715e-05
2.33715e-05
2.87079e-05
2.33715e-05
2.33715e-05
2.87079e-05
2.33715e-05
2.33715e-05
2.87079e-05
2.33715e-05
2.33715e-05
2.87079e-05
2.33715e-05
2.33715e-05
2.87079e-05
2.33715e-05
2.33715e-05
2.87079e-05
2.33715e-05
2.33715e-05
2.87079e-05
2.33715e-05
2.33715e-05
2.87079e-05
2.33715e-05
2.33715e-05
2.87079e-05
2.33715e-05
2.33715e-05
2.87079e-05
2.33715e-05
2.33715e-05
2.87079e-05
2.33715e-05
2.33715e-05
2.87079e-05
2.33715e-05
2.33715e-05
2.87079e-05
2.33715e-05
2.33715e-05
2.87079e-05
2.33715e-05
2.33715e-05
2.87079e-05
2.33715e-05
2.33715e-05
2.87079e-05
2.33715e-05
2.33715e-05
2.87079e-05
2.33715e-05
2.33715e-05
2.87079e-05
2.33715e-05
2.33715e-05
2.87079e-05
2.33715e-05
2.33716e-05
2.87082e-05
2.33704e-05
2.33705e-05
2.42173e-05
2.42179e-05
2.42185e-05
2.42191e-05
2.42197e-05
2.42203e-05
2.4221e-05
2.42216e-05
2.42223e-05
2.4223e-05
2.42237e-05
2.42244e-05
2.42252e-05
2.4226e-05
2.42268e-05
2.42276e-05
2.42284e-05
2.42293e-05
2.42301e-05
2.4231e-05
2.4232e-05
2.42611e-05
2.47831e-05
2.47874e-05
2.47917e-05
2.47961e-05
2.48005e-05
2.4805e-05
2.48096e-05
2.48142e-05
2.48189e-05
2.48237e-05
2.48285e-05
2.48335e-05
2.48385e-05
2.48435e-05
2.48487e-05
2.48539e-05
2.48593e-05
2.48647e-05
2.48702e-05
2.48757e-05
2.48814e-05
2.49113e-05
2.47476e-05
2.47515e-05
2.47555e-05
2.47596e-05
2.47637e-05
2.47678e-05
2.47721e-05
2.47763e-05
2.47807e-05
2.47851e-05
2.47896e-05
2.47941e-05
2.47987e-05
2.48034e-05
2.48082e-05
2.4813e-05
2.48179e-05
2.48229e-05
2.48279e-05
2.48331e-05
2.48383e-05
2.48682e-05
2.47219e-05
2.47257e-05
2.47295e-05
2.47333e-05
2.47372e-05
2.47412e-05
2.47452e-05
2.47493e-05
2.47535e-05
2.47577e-05
2.47619e-05
2.47663e-05
2.47707e-05
2.47751e-05
2.47797e-05
2.47843e-05
2.4789e-05
2.47937e-05
2.47985e-05
2.48034e-05
2.48084e-05
2.48383e-05
2.46962e-05
2.46998e-05
2.47034e-05
2.47071e-05
2.47108e-05
2.47146e-05
2.47184e-05
2.47223e-05
2.47263e-05
2.47303e-05
2.47343e-05
2.47385e-05
2.47426e-05
2.47469e-05
2.47512e-05
2.47556e-05
2.476e-05
2.47646e-05
2.47692e-05
2.47738e-05
2.47786e-05
2.48084e-05
2.46706e-05
2.4674e-05
2.46774e-05
2.46809e-05
2.46844e-05
2.4688e-05
2.46916e-05
2.46953e-05
2.46991e-05
2.47029e-05
2.47067e-05
2.47107e-05
2.47146e-05
2.47187e-05
2.47228e-05
2.47269e-05
2.47312e-05
2.47355e-05
2.47398e-05
2.47443e-05
2.47488e-05
2.47785e-05
2.46449e-05
2.46482e-05
2.46514e-05
2.46547e-05
2.46581e-05
2.46615e-05
2.46649e-05
2.46684e-05
2.46719e-05
2.46755e-05
2.46792e-05
2.46829e-05
2.46867e-05
2.46905e-05
2.46944e-05
2.46983e-05
2.47023e-05
2.47064e-05
2.47105e-05
2.47147e-05
2.4719e-05
2.47487e-05
2.46193e-05
2.46224e-05
2.46254e-05
2.46286e-05
2.46317e-05
2.46349e-05
2.46382e-05
2.46415e-05
2.46448e-05
2.46482e-05
2.46517e-05
2.46552e-05
2.46587e-05
2.46623e-05
2.4666e-05
2.46697e-05
2.46735e-05
2.46773e-05
2.46812e-05
2.46852e-05
2.46892e-05
2.47189e-05
2.45938e-05
2.45966e-05
2.45995e-05
2.46024e-05
2.46054e-05
2.46084e-05
2.46115e-05
2.46146e-05
2.46177e-05
2.46209e-05
2.46242e-05
2.46275e-05
2.46308e-05
2.46342e-05
2.46376e-05
2.46411e-05
2.46447e-05
2.46483e-05
2.4652e-05
2.46557e-05
2.46595e-05
2.46891e-05
2.45682e-05
2.45709e-05
2.45736e-05
2.45763e-05
2.45791e-05
2.45819e-05
2.45848e-05
2.45877e-05
2.45907e-05
2.45937e-05
2.45967e-05
2.45998e-05
2.46029e-05
2.46061e-05
2.46093e-05
2.46126e-05
2.46159e-05
2.46193e-05
2.46227e-05
2.46262e-05
2.46298e-05
2.46594e-05
2.45427e-05
2.45452e-05
2.45477e-05
2.45503e-05
2.45529e-05
2.45555e-05
2.45582e-05
2.45609e-05
2.45637e-05
2.45665e-05
2.45693e-05
2.45722e-05
2.45751e-05
2.45781e-05
2.45811e-05
2.45842e-05
2.45873e-05
2.45904e-05
2.45936e-05
2.45969e-05
2.46002e-05
2.46298e-05
2.45173e-05
2.45196e-05
2.45219e-05
2.45243e-05
2.45267e-05
2.45292e-05
2.45316e-05
2.45342e-05
2.45367e-05
2.45393e-05
2.4542e-05
2.45446e-05
2.45473e-05
2.45501e-05
2.45529e-05
2.45557e-05
2.45586e-05
2.45616e-05
2.45645e-05
2.45676e-05
2.45706e-05
2.46002e-05
2.44918e-05
2.4494e-05
2.44961e-05
2.44983e-05
2.45006e-05
2.45028e-05
2.45051e-05
2.45074e-05
2.45098e-05
2.45122e-05
2.45146e-05
2.45171e-05
2.45196e-05
2.45221e-05
2.45247e-05
2.45273e-05
2.453e-05
2.45327e-05
2.45355e-05
2.45383e-05
2.45411e-05
2.45706e-05
2.44664e-05
2.44684e-05
2.44704e-05
2.44724e-05
2.44744e-05
2.44765e-05
2.44786e-05
2.44807e-05
2.44829e-05
2.44851e-05
2.44873e-05
2.44896e-05
2.44919e-05
2.44942e-05
2.44966e-05
2.4499e-05
2.45014e-05
2.45039e-05
2.45064e-05
2.4509e-05
2.45116e-05
2.45411e-05
2.4441e-05
2.44428e-05
2.44446e-05
2.44465e-05
2.44483e-05
2.44502e-05
2.44521e-05
2.44541e-05
2.4456e-05
2.4458e-05
2.44601e-05
2.44621e-05
2.44642e-05
2.44663e-05
2.44685e-05
2.44707e-05
2.44729e-05
2.44751e-05
2.44774e-05
2.44798e-05
2.44821e-05
2.45116e-05
2.44157e-05
2.44173e-05
2.44189e-05
2.44206e-05
2.44222e-05
2.44239e-05
2.44257e-05
2.44274e-05
2.44292e-05
2.4431e-05
2.44328e-05
2.44347e-05
2.44365e-05
2.44385e-05
2.44404e-05
2.44424e-05
2.44444e-05
2.44464e-05
2.44485e-05
2.44506e-05
2.44527e-05
2.44821e-05
2.43903e-05
2.43918e-05
2.43932e-05
2.43947e-05
2.43962e-05
2.43977e-05
2.43992e-05
2.44008e-05
2.44024e-05
2.4404e-05
2.44056e-05
2.44072e-05
2.44089e-05
2.44106e-05
2.44123e-05
2.44141e-05
2.44159e-05
2.44177e-05
2.44195e-05
2.44214e-05
2.44233e-05
2.44527e-05
2.4365e-05
2.43663e-05
2.43676e-05
2.43688e-05
2.43701e-05
2.43715e-05
2.43728e-05
2.43742e-05
2.43756e-05
2.4377e-05
2.43784e-05
2.43798e-05
2.43813e-05
2.43828e-05
2.43843e-05
2.43859e-05
2.43874e-05
2.4389e-05
2.43906e-05
2.43923e-05
2.43939e-05
2.44233e-05
2.43397e-05
2.43408e-05
2.43419e-05
2.4343e-05
2.43441e-05
2.43453e-05
2.43464e-05
2.43476e-05
2.43488e-05
2.435e-05
2.43512e-05
2.43525e-05
2.43537e-05
2.4355e-05
2.43563e-05
2.43576e-05
2.4359e-05
2.43604e-05
2.43617e-05
2.43631e-05
2.43646e-05
2.43939e-05
2.43145e-05
2.43154e-05
2.43163e-05
2.43172e-05
2.43182e-05
2.43191e-05
2.43201e-05
2.43211e-05
2.43221e-05
2.43231e-05
2.43241e-05
2.43251e-05
2.43262e-05
2.43273e-05
2.43284e-05
2.43295e-05
2.43306e-05
2.43317e-05
2.43329e-05
2.43341e-05
2.43353e-05
2.43646e-05
2.42892e-05
2.429e-05
2.42907e-05
2.42914e-05
2.42922e-05
2.4293e-05
2.42938e-05
2.42945e-05
2.42953e-05
2.42962e-05
2.4297e-05
2.42978e-05
2.42987e-05
2.42995e-05
2.43004e-05
2.43013e-05
2.43022e-05
2.43031e-05
2.43041e-05
2.4305e-05
2.4306e-05
2.43353e-05
2.4264e-05
2.42646e-05
2.42651e-05
2.42657e-05
2.42663e-05
2.42669e-05
2.42675e-05
2.42681e-05
2.42687e-05
2.42693e-05
2.42699e-05
2.42705e-05
2.42712e-05
2.42719e-05
2.42725e-05
2.42732e-05
2.42739e-05
2.42746e-05
2.42753e-05
2.4276e-05
2.42768e-05
2.4306e-05
2.42388e-05
2.42392e-05
2.42396e-05
2.424e-05
2.42404e-05
2.42408e-05
2.42412e-05
2.42416e-05
2.4242e-05
2.42424e-05
2.42429e-05
2.42433e-05
2.42437e-05
2.42442e-05
2.42446e-05
2.42451e-05
2.42456e-05
2.42461e-05
2.42465e-05
2.4247e-05
2.42475e-05
2.42768e-05
2.42137e-05
2.42139e-05
2.42141e-05
2.42143e-05
2.42145e-05
2.42147e-05
2.42149e-05
2.42151e-05
2.42154e-05
2.42156e-05
2.42158e-05
2.42161e-05
2.42163e-05
2.42166e-05
2.42168e-05
2.4217e-05
2.42173e-05
2.42176e-05
2.42178e-05
2.42181e-05
2.42184e-05
2.42475e-05
2.41875e-05
2.41875e-05
2.41875e-05
2.41876e-05
2.41876e-05
2.41876e-05
2.41876e-05
2.41877e-05
2.41877e-05
2.41877e-05
2.41877e-05
2.41878e-05
2.41878e-05
2.41878e-05
2.41878e-05
2.41879e-05
2.41879e-05
2.41879e-05
2.4188e-05
2.4188e-05
2.4188e-05
2.42172e-05
)
;

boundaryField
{
    inlet
    {
        type            calculated;
        value           uniform 2.81085e-05;
    }
    outlet2
    {
        type            calculated;
        value           uniform 2.81085e-05;
    }
    outlet1
    {
        type            calculated;
        value           uniform 2.81085e-05;
    }
    wall
    {
        type            calculated;
        value           uniform 2.81085e-05;
    }
    symmetryBottom
    {
        type            symmetry;
    }
    symmetryZ0
    {
        type            symmetry;
    }
    symmetryZ05
    {
        type            symmetry;
    }
}


// ************************************************************************* //
