/*--------------------------------*- C++ -*----------------------------------*\
| =========                 |                                                 |
| \\      /  F ield         | OpenFOAM: The Open Source CFD Toolbox           |
|  \\    /   O peration     | Version:  2412                                  |
|   \\  /    A nd           | Website:  www.openfoam.com                      |
|    \\/     M anipulation  |                                                 |
\*---------------------------------------------------------------------------*/
FoamFile
{
    version     2.0;
    format      ascii;
    arch        "LSB;label=32;scalar=64";
    class       volVectorField;
    location    "1.16035e-06";
    object      rhoU_dof0;
}
// * * * * * * * * * * * * * * * * * * * * * * * * * * * * * * * * * * * * * //

dimensions      [0 0 0 0 0 0 0];

internalField   nonuniform List<vector> 
625
(
(0.0757028 -4.10437e-07 -9.32544e-07)
(0.0615478 -5.8507e-07 -9.7028e-07)
(0.0615478 -5.85955e-07 1.14529e-08)
(0.0757052 -6.62335e-05 -9.3249e-07)
(0.0615499 -5.75268e-05 -9.70236e-07)
(0.0615499 -5.75278e-05 5.57727e-11)
(0.0757029 -6.60002e-05 -9.32518e-07)
(0.0615478 -5.73169e-05 -9.70266e-07)
(0.0615479 -5.73177e-05 2.2011e-10)
(0.0757029 -6.60012e-05 -9.32518e-07)
(0.0615479 -5.73178e-05 -9.70266e-07)
(0.0615479 -5.73186e-05 2.19466e-10)
(0.0757029 -6.60012e-05 -9.32518e-07)
(0.0615479 -5.73178e-05 -9.70266e-07)
(0.0615479 -5.73186e-05 2.19468e-10)
(0.0757029 -6.60012e-05 -9.32518e-07)
(0.0615479 -5.73178e-05 -9.70266e-07)
(0.0615479 -5.73186e-05 2.19468e-10)
(0.0757029 -6.60012e-05 -9.32518e-07)
(0.0615479 -5.73178e-05 -9.70266e-07)
(0.0615479 -5.73186e-05 2.19468e-10)
(0.0757029 -6.60012e-05 -9.32518e-07)
(0.0615479 -5.73178e-05 -9.70266e-07)
(0.0615479 -5.73186e-05 2.19468e-10)
(0.0757029 -6.60012e-05 -9.32518e-07)
(0.0615479 -5.73178e-05 -9.70266e-07)
(0.0615479 -5.73186e-05 2.19468e-10)
(0.0757029 -6.60012e-05 -9.32518e-07)
(0.0615479 -5.73178e-05 -9.70266e-07)
(0.0615479 -5.73186e-05 2.19468e-10)
(0.0757029 -6.60012e-05 -9.32518e-07)
(0.0615479 -5.73178e-05 -9.70266e-07)
(0.0615479 -5.73186e-05 2.19468e-10)
(0.0757029 -6.60012e-05 -9.32518e-07)
(0.0615479 -5.73178e-05 -9.70266e-07)
(0.0615479 -5.73186e-05 2.19468e-10)
(0.0757029 -6.60012e-05 -9.32518e-07)
(0.0615479 -5.73178e-05 -9.70266e-07)
(0.0615479 -5.73186e-05 2.19468e-10)
(0.0757029 -6.60012e-05 -9.32518e-07)
(0.0615479 -5.73178e-05 -9.70266e-07)
(0.0615479 -5.73186e-05 2.19468e-10)
(0.0757029 -6.60012e-05 -9.32518e-07)
(0.0615479 -5.73178e-05 -9.70266e-07)
(0.0615479 -5.73186e-05 2.19468e-10)
(0.0757029 -6.60012e-05 -9.32518e-07)
(0.0615479 -5.73178e-05 -9.70266e-07)
(0.0615479 -5.73186e-05 2.19468e-10)
(0.0757029 -6.60012e-05 -9.32518e-07)
(0.0615479 -5.73178e-05 -9.70266e-07)
(0.0615479 -5.73186e-05 2.19468e-10)
(0.0757029 -6.60012e-05 -9.32518e-07)
(0.0615479 -5.73178e-05 -9.70266e-07)
(0.0615479 -5.73186e-05 2.19468e-10)
(0.0757029 -6.60012e-05 -9.32518e-07)
(0.0615479 -5.73178e-05 -9.70266e-07)
(0.0615479 -5.73186e-05 2.19468e-10)
(0.0757029 -6.60012e-05 -9.32518e-07)
(0.0615479 -5.73178e-05 -9.70266e-07)
(0.0615479 -5.73186e-05 2.19468e-10)
(0.0757029 -6.60012e-05 -9.32518e-07)
(0.0615479 -5.73178e-05 -9.70266e-07)
(0.0615479 -5.73186e-05 2.19468e-10)
(0.0757029 -6.60012e-05 -9.32518e-07)
(0.0615479 -5.73178e-05 -9.70266e-07)
(0.0615479 -5.73186e-05 2.1946e-10)
(0.0757029 -6.60012e-05 -9.32518e-07)
(0.0615479 -5.73178e-05 -9.70266e-07)
(0.0615479 -5.73186e-05 2.26102e-10)
(0.0757029 -6.60012e-05 -9.32519e-07)
(0.0615479 -5.73188e-05 -9.70266e-07)
(0.0615479 -5.7325e-05 -6.85785e-09)
(0.0757037 -6.60452e-05 -9.32951e-07)
(0.0615449 -5.71421e-05 -9.70695e-07)
(0.061545 -5.71483e-05 -9.74209e-07)
(0.0635085 8.77612e-06 -1.12162e-06)
(0.0635075 8.91538e-06 -1.12255e-06)
(0.0635064 9.05793e-06 -1.12351e-06)
(0.0635053 9.20388e-06 -1.12447e-06)
(0.0635042 9.35331e-06 -1.12546e-06)
(0.0635031 9.50636e-06 -1.12646e-06)
(0.0635019 9.66314e-06 -1.12747e-06)
(0.0635008 9.82376e-06 -1.1285e-06)
(0.0634996 9.98836e-06 -1.12955e-06)
(0.0634985 1.01571e-05 -1.13061e-06)
(0.0634973 1.033e-05 -1.1317e-06)
(0.0634961 1.05073e-05 -1.1328e-06)
(0.0634949 1.06892e-05 -1.13391e-06)
(0.0634937 1.08757e-05 -1.13505e-06)
(0.0634925 1.10671e-05 -1.13621e-06)
(0.0634912 1.12635e-05 -1.13739e-06)
(0.06349 1.14651e-05 -1.13859e-06)
(0.0634887 1.16721e-05 -1.1398e-06)
(0.0634874 1.18847e-05 -1.14104e-06)
(0.0634862 1.2103e-05 -1.14231e-06)
(0.0634849 1.23273e-05 -1.14359e-06)
(0.0635617 1.2331e-05 -1.88322e-08)
(0.0652905 -5.62714e-05 -1.0273e-06)
(0.0653018 -5.66281e-05 -1.02749e-06)
(0.0653132 -5.69891e-05 -1.02768e-06)
(0.0653248 -5.73546e-05 -1.02788e-06)
(0.0653366 -5.77247e-05 -1.02808e-06)
(0.0653486 -5.80993e-05 -1.02828e-06)
(0.0653607 -5.84786e-05 -1.02849e-06)
(0.0653731 -5.88627e-05 -1.0287e-06)
(0.0653856 -5.92517e-05 -1.02891e-06)
(0.0653983 -5.96456e-05 -1.02913e-06)
(0.0654112 -6.00446e-05 -1.02934e-06)
(0.0654243 -6.04486e-05 -1.02957e-06)
(0.0654375 -6.08579e-05 -1.02979e-06)
(0.065451 -6.12724e-05 -1.03002e-06)
(0.0654648 -6.16924e-05 -1.03025e-06)
(0.0654787 -6.21179e-05 -1.03049e-06)
(0.0654928 -6.25489e-05 -1.03073e-06)
(0.0655072 -6.29857e-05 -1.03097e-06)
(0.0655218 -6.34283e-05 -1.03122e-06)
(0.0655367 -6.38767e-05 -1.03147e-06)
(0.0655518 -6.43312e-05 -1.03173e-06)
(0.065631 -6.44074e-05 -4.33986e-09)
(0.0651943 -6.09618e-05 -1.02638e-06)
(0.0652047 -6.13925e-05 -1.02656e-06)
(0.0652153 -6.18294e-05 -1.02675e-06)
(0.065226 -6.22726e-05 -1.02694e-06)
(0.0652369 -6.27222e-05 -1.02713e-06)
(0.0652479 -6.31783e-05 -1.02733e-06)
(0.0652591 -6.36411e-05 -1.02753e-06)
(0.0652704 -6.41107e-05 -1.02773e-06)
(0.065282 -6.45874e-05 -1.02793e-06)
(0.0652937 -6.50711e-05 -1.02814e-06)
(0.0653055 -6.55622e-05 -1.02835e-06)
(0.0653176 -6.60608e-05 -1.02856e-06)
(0.0653298 -6.65671e-05 -1.02878e-06)
(0.0653422 -6.70811e-05 -1.029e-06)
(0.0653548 -6.76032e-05 -1.02923e-06)
(0.0653676 -6.81335e-05 -1.02945e-06)
(0.0653806 -6.86721e-05 -1.02968e-06)
(0.0653938 -6.92194e-05 -1.02992e-06)
(0.0654072 -6.97755e-05 -1.03016e-06)
(0.0654209 -7.03406e-05 -1.0304e-06)
(0.0654347 -7.09149e-05 -1.03064e-06)
(0.0655138 -7.09956e-05 -2.52794e-09)
(0.0651262 -6.08438e-05 -1.02552e-06)
(0.0651361 -6.12723e-05 -1.0257e-06)
(0.0651462 -6.1707e-05 -1.02588e-06)
(0.0651564 -6.21479e-05 -1.02606e-06)
(0.0651668 -6.25951e-05 -1.02625e-06)
(0.0651773 -6.30488e-05 -1.02644e-06)
(0.065188 -6.35091e-05 -1.02663e-06)
(0.0651988 -6.39762e-05 -1.02683e-06)
(0.0652098 -6.44502e-05 -1.02703e-06)
(0.065221 -6.49312e-05 -1.02723e-06)
(0.0652323 -6.54195e-05 -1.02743e-06)
(0.0652438 -6.59153e-05 -1.02764e-06)
(0.0652554 -6.64185e-05 -1.02785e-06)
(0.0652673 -6.69296e-05 -1.02806e-06)
(0.0652793 -6.74485e-05 -1.02828e-06)
(0.0652915 -6.79756e-05 -1.0285e-06)
(0.0653039 -6.85109e-05 -1.02872e-06)
(0.0653165 -6.90548e-05 -1.02895e-06)
(0.0653293 -6.96073e-05 -1.02918e-06)
(0.0653423 -7.01688e-05 -1.02941e-06)
(0.0653555 -7.07394e-05 -1.02965e-06)
(0.0654345 -7.08198e-05 -2.41201e-09)
(0.0650581 -6.07898e-05 -1.02466e-06)
(0.0650676 -6.12177e-05 -1.02484e-06)
(0.0650772 -6.16516e-05 -1.02501e-06)
(0.0650869 -6.20916e-05 -1.02519e-06)
(0.0650968 -6.25381e-05 -1.02537e-06)
(0.0651068 -6.29909e-05 -1.02555e-06)
(0.065117 -6.34504e-05 -1.02574e-06)
(0.0651273 -6.39167e-05 -1.02593e-06)
(0.0651377 -6.43898e-05 -1.02612e-06)
(0.0651483 -6.487e-05 -1.02631e-06)
(0.0651591 -6.53574e-05 -1.02651e-06)
(0.06517 -6.58522e-05 -1.02671e-06)
(0.0651811 -6.63545e-05 -1.02691e-06)
(0.0651924 -6.68646e-05 -1.02712e-06)
(0.0652039 -6.73825e-05 -1.02733e-06)
(0.0652155 -6.79086e-05 -1.02754e-06)
(0.0652273 -6.84429e-05 -1.02776e-06)
(0.0652393 -6.89857e-05 -1.02797e-06)
(0.0652514 -6.95372e-05 -1.0282e-06)
(0.0652638 -7.00975e-05 -1.02842e-06)
(0.0652764 -7.0667e-05 -1.02865e-06)
(0.0653553 -7.07472e-05 -2.29177e-09)
(0.0649902 -6.07355e-05 -1.02381e-06)
(0.0649991 -6.11625e-05 -1.02398e-06)
(0.0650082 -6.15957e-05 -1.02415e-06)
(0.0650175 -6.20349e-05 -1.02432e-06)
(0.0650269 -6.24806e-05 -1.02449e-06)
(0.0650364 -6.29326e-05 -1.02467e-06)
(0.065046 -6.33912e-05 -1.02485e-06)
(0.0650558 -6.38566e-05 -1.02503e-06)
(0.0650657 -6.43289e-05 -1.02521e-06)
(0.0650758 -6.48082e-05 -1.0254e-06)
(0.065086 -6.52947e-05 -1.02559e-06)
(0.0650964 -6.57885e-05 -1.02578e-06)
(0.0651069 -6.62899e-05 -1.02598e-06)
(0.0651176 -6.67989e-05 -1.02618e-06)
(0.0651285 -6.73159e-05 -1.02638e-06)
(0.0651395 -6.78409e-05 -1.02658e-06)
(0.0651507 -6.83742e-05 -1.02679e-06)
(0.0651621 -6.89159e-05 -1.027e-06)
(0.0651737 -6.94662e-05 -1.02722e-06)
(0.0651854 -7.00254e-05 -1.02744e-06)
(0.0651973 -7.05937e-05 -1.02766e-06)
(0.0652762 -7.06738e-05 -2.17134e-09)
(0.0649222 -6.06812e-05 -1.02295e-06)
(0.0649307 -6.11075e-05 -1.02312e-06)
(0.0649394 -6.15398e-05 -1.02328e-06)
(0.0649481 -6.19783e-05 -1.02344e-06)
(0.064957 -6.24231e-05 -1.02361e-06)
(0.064966 -6.28743e-05 -1.02378e-06)
(0.0649751 -6.33321e-05 -1.02395e-06)
(0.0649844 -6.37966e-05 -1.02413e-06)
(0.0649938 -6.4268e-05 -1.02431e-06)
(0.0650033 -6.47464e-05 -1.02449e-06)
(0.065013 -6.5232e-05 -1.02467e-06)
(0.0650228 -6.57249e-05 -1.02486e-06)
(0.0650328 -6.62253e-05 -1.02505e-06)
(0.0650429 -6.67334e-05 -1.02524e-06)
(0.0650532 -6.72493e-05 -1.02543e-06)
(0.0650636 -6.77733e-05 -1.02563e-06)
(0.0650743 -6.83055e-05 -1.02583e-06)
(0.065085 -6.88461e-05 -1.02603e-06)
(0.065096 -6.93954e-05 -1.02624e-06)
(0.0651071 -6.99534e-05 -1.02645e-06)
(0.0651184 -7.05206e-05 -1.02666e-06)
(0.0651972 -7.06004e-05 -2.05082e-09)
(0.0648544 -6.06269e-05 -1.0221e-06)
(0.0648624 -6.10524e-05 -1.02226e-06)
(0.0648705 -6.1484e-05 -1.02241e-06)
(0.0648788 -6.19217e-05 -1.02257e-06)
(0.0648872 -6.23657e-05 -1.02273e-06)
(0.0648957 -6.28161e-05 -1.0229e-06)
(0.0649043 -6.3273e-05 -1.02306e-06)
(0.064913 -6.37367e-05 -1.02323e-06)
(0.0649219 -6.42072e-05 -1.0234e-06)
(0.0649309 -6.46847e-05 -1.02358e-06)
(0.06494 -6.51693e-05 -1.02375e-06)
(0.0649493 -6.56613e-05 -1.02393e-06)
(0.0649587 -6.61607e-05 -1.02411e-06)
(0.0649683 -6.66678e-05 -1.0243e-06)
(0.064978 -6.71828e-05 -1.02449e-06)
(0.0649878 -6.77057e-05 -1.02468e-06)
(0.0649979 -6.82369e-05 -1.02487e-06)
(0.065008 -6.87764e-05 -1.02506e-06)
(0.0650184 -6.93246e-05 -1.02526e-06)
(0.0650289 -6.98815e-05 -1.02547e-06)
(0.0650395 -7.04475e-05 -1.02567e-06)
(0.0651182 -7.05271e-05 -1.9302e-09)
(0.0647865 -6.05726e-05 -1.02125e-06)
(0.0647941 -6.09974e-05 -1.0214e-06)
(0.0648018 -6.14282e-05 -1.02155e-06)
(0.0648095 -6.18651e-05 -1.0217e-06)
(0.0648174 -6.23083e-05 -1.02186e-06)
(0.0648254 -6.27579e-05 -1.02201e-06)
(0.0648335 -6.3214e-05 -1.02217e-06)
(0.0648417 -6.36768e-05 -1.02233e-06)
(0.0648501 -6.41464e-05 -1.0225e-06)
(0.0648585 -6.4623e-05 -1.02267e-06)
(0.0648671 -6.51067e-05 -1.02284e-06)
(0.0648759 -6.55977e-05 -1.02301e-06)
(0.0648847 -6.60962e-05 -1.02318e-06)
(0.0648937 -6.66023e-05 -1.02336e-06)
(0.0649029 -6.71163e-05 -1.02354e-06)
(0.0649121 -6.76382e-05 -1.02372e-06)
(0.0649215 -6.81683e-05 -1.02391e-06)
(0.0649311 -6.87068e-05 -1.0241e-06)
(0.0649408 -6.92538e-05 -1.02429e-06)
(0.0649507 -6.98096e-05 -1.02448e-06)
(0.0649607 -7.03745e-05 -1.02468e-06)
(0.0650394 -7.04539e-05 -1.8096e-09)
(0.0647188 -6.05182e-05 -1.02039e-06)
(0.0647259 -6.09422e-05 -1.02054e-06)
(0.0647331 -6.13723e-05 -1.02068e-06)
(0.0647403 -6.18084e-05 -1.02083e-06)
(0.0647477 -6.22508e-05 -1.02098e-06)
(0.0647552 -6.26995e-05 -1.02113e-06)
(0.0647628 -6.31548e-05 -1.02128e-06)
(0.0647705 -6.36167e-05 -1.02144e-06)
(0.0647783 -6.40854e-05 -1.0216e-06)
(0.0647863 -6.45611e-05 -1.02176e-06)
(0.0647943 -6.50439e-05 -1.02192e-06)
(0.0648025 -6.5534e-05 -1.02208e-06)
(0.0648108 -6.60315e-05 -1.02225e-06)
(0.0648192 -6.65367e-05 -1.02242e-06)
(0.0648278 -6.70496e-05 -1.02259e-06)
(0.0648365 -6.75705e-05 -1.02277e-06)
(0.0648453 -6.80995e-05 -1.02295e-06)
(0.0648543 -6.86369e-05 -1.02313e-06)
(0.0648634 -6.91829e-05 -1.02331e-06)
(0.0648726 -6.97376e-05 -1.0235e-06)
(0.064882 -7.03012e-05 -1.02369e-06)
(0.0649606 -7.03804e-05 -1.68087e-09)
(0.0646513 -6.04541e-05 -1.01951e-06)
(0.0646579 -6.08773e-05 -1.01965e-06)
(0.0646646 -6.13064e-05 -1.01979e-06)
(0.0646714 -6.17417e-05 -1.01993e-06)
(0.0646783 -6.21832e-05 -1.02007e-06)
(0.0646853 -6.2631e-05 -1.02022e-06)
(0.0646923 -6.30854e-05 -1.02036e-06)
(0.0646995 -6.35464e-05 -1.02051e-06)
(0.0647068 -6.40142e-05 -1.02066e-06)
(0.0647142 -6.44889e-05 -1.02082e-06)
(0.0647218 -6.49707e-05 -1.02097e-06)
(0.0647294 -6.54597e-05 -1.02113e-06)
(0.0647371 -6.59562e-05 -1.02129e-06)
(0.064745 -6.64603e-05 -1.02145e-06)
(0.064753 -6.69721e-05 -1.02162e-06)
(0.0647611 -6.74919e-05 -1.02178e-06)
(0.0647693 -6.80198e-05 -1.02196e-06)
(0.0647777 -6.8556e-05 -1.02213e-06)
(0.0647862 -6.91008e-05 -1.0223e-06)
(0.0647948 -6.96542e-05 -1.02248e-06)
(0.0648036 -7.02166e-05 -1.02266e-06)
(0.0648821 -7.02948e-05 -7.13821e-10)
(0.0645838 -6.03898e-05 -1.01863e-06)
(0.06459 -6.08122e-05 -1.01876e-06)
(0.0645962 -6.12405e-05 -1.01889e-06)
(0.0646025 -6.16749e-05 -1.01903e-06)
(0.0646089 -6.21155e-05 -1.01916e-06)
(0.0646154 -6.25625e-05 -1.0193e-06)
(0.0646219 -6.30159e-05 -1.01944e-06)
(0.0646286 -6.3476e-05 -1.01958e-06)
(0.0646354 -6.39428e-05 -1.01973e-06)
(0.0646423 -6.44165e-05 -1.01988e-06)
(0.0646493 -6.48973e-05 -1.02002e-06)
(0.0646563 -6.53854e-05 -1.02017e-06)
(0.0646635 -6.58808e-05 -1.02033e-06)
(0.0646708 -6.63838e-05 -1.02048e-06)
(0.0646783 -6.68945e-05 -1.02064e-06)
(0.0646858 -6.74132e-05 -1.0208e-06)
(0.0646934 -6.794e-05 -1.02096e-06)
(0.0647012 -6.8475e-05 -1.02113e-06)
(0.0647091 -6.90186e-05 -1.0213e-06)
(0.0647171 -6.95708e-05 -1.02147e-06)
(0.0647252 -7.0132e-05 -1.02164e-06)
(0.0648036 -7.02101e-05 -6.20163e-10)
(0.0645164 -6.03254e-05 -1.01775e-06)
(0.0645221 -6.0747e-05 -1.01788e-06)
(0.0645278 -6.11745e-05 -1.018e-06)
(0.0645336 -6.1608e-05 -1.01813e-06)
(0.0645396 -6.20478e-05 -1.01826e-06)
(0.0645455 -6.24938e-05 -1.01839e-06)
(0.0645516 -6.29463e-05 -1.01852e-06)
(0.0645578 -6.34054e-05 -1.01866e-06)
(0.064564 -6.38713e-05 -1.0188e-06)
(0.0645704 -6.43441e-05 -1.01894e-06)
(0.0645768 -6.48239e-05 -1.01908e-06)
(0.0645834 -6.53109e-05 -1.01922e-06)
(0.06459 -6.58053e-05 -1.01937e-06)
(0.0645968 -6.63072e-05 -1.01951e-06)
(0.0646036 -6.68169e-05 -1.01966e-06)
(0.0646106 -6.73344e-05 -1.01982e-06)
(0.0646176 -6.786e-05 -1.01997e-06)
(0.0646248 -6.83939e-05 -1.02013e-06)
(0.0646321 -6.89363e-05 -1.02029e-06)
(0.0646395 -6.94873e-05 -1.02045e-06)
(0.064647 -7.00472e-05 -1.02062e-06)
(0.0647253 -7.01253e-05 -5.53198e-10)
(0.0644491 -6.0261e-05 -1.01687e-06)
(0.0644543 -6.06817e-05 -1.01699e-06)
(0.0644595 -6.11084e-05 -1.01711e-06)
(0.0644649 -6.1541e-05 -1.01723e-06)
(0.0644703 -6.19799e-05 -1.01735e-06)
(0.0644758 -6.24251e-05 -1.01748e-06)
(0.0644814 -6.28766e-05 -1.0176e-06)
(0.064487 -6.33348e-05 -1.01773e-06)
(0.0644928 -6.37997e-05 -1.01786e-06)
(0.0644986 -6.42715e-05 -1.018e-06)
(0.0645045 -6.47503e-05 -1.01813e-06)
(0.0645105 -6.52363e-05 -1.01827e-06)
(0.0645166 -6.57297e-05 -1.01841e-06)
(0.0645228 -6.62305e-05 -1.01855e-06)
(0.064529 -6.67391e-05 -1.01869e-06)
(0.0645354 -6.72555e-05 -1.01883e-06)
(0.0645419 -6.778e-05 -1.01898e-06)
(0.0645484 -6.83127e-05 -1.01913e-06)
(0.0645551 -6.88539e-05 -1.01928e-06)
(0.0645619 -6.94037e-05 -1.01944e-06)
(0.0645688 -6.99624e-05 -1.01959e-06)
(0.064647 -7.00404e-05 -4.86367e-10)
(0.0643818 -6.01965e-05 -1.01599e-06)
(0.0643865 -6.06164e-05 -1.0161e-06)
(0.0643913 -6.10422e-05 -1.01622e-06)
(0.0643962 -6.1474e-05 -1.01633e-06)
(0.0644011 -6.19119e-05 -1.01645e-06)
(0.0644061 -6.23562e-05 -1.01657e-06)
(0.0644112 -6.28069e-05 -1.01669e-06)
(0.0644163 -6.32641e-05 -1.01681e-06)
(0.0644215 -6.37281e-05 -1.01693e-06)
(0.0644268 -6.41989e-05 -1.01706e-06)
(0.0644322 -6.46767e-05 -1.01719e-06)
(0.0644377 -6.51617e-05 -1.01731e-06)
(0.0644432 -6.5654e-05 -1.01745e-06)
(0.0644488 -6.61538e-05 -1.01758e-06)
(0.0644545 -6.66612e-05 -1.01771e-06)
(0.0644603 -6.71765e-05 -1.01785e-06)
(0.0644662 -6.76999e-05 -1.01799e-06)
(0.0644722 -6.82314e-05 -1.01813e-06)
(0.0644783 -6.87714e-05 -1.01828e-06)
(0.0644844 -6.932e-05 -1.01842e-06)
(0.0644907 -6.98774e-05 -1.01857e-06)
(0.0645688 -6.99554e-05 -4.19713e-10)
(0.0643146 -6.01318e-05 -1.01511e-06)
(0.0643189 -6.05509e-05 -1.01522e-06)
(0.0643232 -6.09759e-05 -1.01533e-06)
(0.0643276 -6.14068e-05 -1.01543e-06)
(0.064332 -6.18439e-05 -1.01554e-06)
(0.0643365 -6.22873e-05 -1.01566e-06)
(0.0643411 -6.2737e-05 -1.01577e-06)
(0.0643457 -6.31933e-05 -1.01588e-06)
(0.0643504 -6.36563e-05 -1.016e-06)
(0.0643552 -6.41261e-05 -1.01612e-06)
(0.06436 -6.46029e-05 -1.01624e-06)
(0.0643649 -6.50869e-05 -1.01636e-06)
(0.0643699 -6.55782e-05 -1.01649e-06)
(0.064375 -6.60769e-05 -1.01661e-06)
(0.0643801 -6.65833e-05 -1.01674e-06)
(0.0643853 -6.70975e-05 -1.01687e-06)
(0.0643906 -6.76197e-05 -1.017e-06)
(0.064396 -6.81501e-05 -1.01714e-06)
(0.0644015 -6.86888e-05 -1.01727e-06)
(0.064407 -6.92362e-05 -1.01741e-06)
(0.0644127 -6.97924e-05 -1.01755e-06)
(0.0644907 -6.98702e-05 -3.53236e-10)
(0.0642475 -6.00671e-05 -1.01423e-06)
(0.0642513 -6.04854e-05 -1.01433e-06)
(0.0642551 -6.09095e-05 -1.01443e-06)
(0.064259 -6.13396e-05 -1.01454e-06)
(0.0642629 -6.17758e-05 -1.01464e-06)
(0.0642669 -6.22182e-05 -1.01475e-06)
(0.064271 -6.26671e-05 -1.01485e-06)
(0.0642751 -6.31224e-05 -1.01496e-06)
(0.0642793 -6.35845e-05 -1.01507e-06)
(0.0642836 -6.40533e-05 -1.01518e-06)
(0.0642879 -6.45291e-05 -1.0153e-06)
(0.0642922 -6.5012e-05 -1.01541e-06)
(0.0642967 -6.55022e-05 -1.01553e-06)
(0.0643012 -6.59999e-05 -1.01565e-06)
(0.0643058 -6.65052e-05 -1.01577e-06)
(0.0643104 -6.70183e-05 -1.01589e-06)
(0.0643151 -6.75393e-05 -1.01601e-06)
(0.0643199 -6.80686e-05 -1.01614e-06)
(0.0643248 -6.86061e-05 -1.01627e-06)
(0.0643297 -6.91523e-05 -1.0164e-06)
(0.0643348 -6.97072e-05 -1.01653e-06)
(0.0644127 -6.9785e-05 -2.86937e-10)
(0.0641804 -6.00024e-05 -1.01336e-06)
(0.0641837 -6.04198e-05 -1.01345e-06)
(0.0641871 -6.0843e-05 -1.01354e-06)
(0.0641905 -6.12722e-05 -1.01364e-06)
(0.064194 -6.17076e-05 -1.01374e-06)
(0.0641975 -6.21491e-05 -1.01384e-06)
(0.064201 -6.2597e-05 -1.01394e-06)
(0.0642046 -6.30514e-05 -1.01404e-06)
(0.0642083 -6.35125e-05 -1.01414e-06)
(0.064212 -6.39804e-05 -1.01425e-06)
(0.0642158 -6.44552e-05 -1.01435e-06)
(0.0642196 -6.49371e-05 -1.01446e-06)
(0.0642235 -6.54262e-05 -1.01457e-06)
(0.0642275 -6.59228e-05 -1.01468e-06)
(0.0642315 -6.6427e-05 -1.0148e-06)
(0.0642356 -6.6939e-05 -1.01491e-06)
(0.0642397 -6.74589e-05 -1.01503e-06)
(0.0642439 -6.7987e-05 -1.01514e-06)
(0.0642482 -6.85233e-05 -1.01526e-06)
(0.0642525 -6.90683e-05 -1.01539e-06)
(0.0642569 -6.96219e-05 -1.01551e-06)
(0.0643348 -6.96997e-05 -2.20817e-10)
(0.0641134 -5.99375e-05 -1.01248e-06)
(0.0641162 -6.03541e-05 -1.01257e-06)
(0.0641191 -6.07765e-05 -1.01266e-06)
(0.0641221 -6.12048e-05 -1.01275e-06)
(0.064125 -6.16392e-05 -1.01284e-06)
(0.064128 -6.20799e-05 -1.01293e-06)
(0.0641311 -6.25269e-05 -1.01302e-06)
(0.0641342 -6.29804e-05 -1.01312e-06)
(0.0641374 -6.34405e-05 -1.01321e-06)
(0.0641406 -6.39074e-05 -1.01331e-06)
(0.0641438 -6.43812e-05 -1.01341e-06)
(0.0641471 -6.4862e-05 -1.01351e-06)
(0.0641505 -6.53502e-05 -1.01361e-06)
(0.0641539 -6.58457e-05 -1.01372e-06)
(0.0641573 -6.63488e-05 -1.01382e-06)
(0.0641608 -6.68596e-05 -1.01393e-06)
(0.0641644 -6.73784e-05 -1.01404e-06)
(0.064168 -6.79053e-05 -1.01415e-06)
(0.0641717 -6.84404e-05 -1.01426e-06)
(0.0641754 -6.89841e-05 -1.01438e-06)
(0.0641792 -6.95365e-05 -1.01449e-06)
(0.0642569 -6.96142e-05 -1.54875e-10)
(0.0640464 -5.98725e-05 -1.0116e-06)
(0.0640488 -6.02883e-05 -1.01168e-06)
(0.0640512 -6.07098e-05 -1.01177e-06)
(0.0640537 -6.11373e-05 -1.01185e-06)
(0.0640562 -6.15709e-05 -1.01193e-06)
(0.0640587 -6.20106e-05 -1.01202e-06)
(0.0640613 -6.24567e-05 -1.01211e-06)
(0.0640639 -6.29092e-05 -1.0122e-06)
(0.0640665 -6.33684e-05 -1.01229e-06)
(0.0640692 -6.38343e-05 -1.01238e-06)
(0.0640719 -6.4307e-05 -1.01247e-06)
(0.0640747 -6.47869e-05 -1.01256e-06)
(0.0640775 -6.5274e-05 -1.01266e-06)
(0.0640803 -6.57684e-05 -1.01275e-06)
(0.0640832 -6.62704e-05 -1.01285e-06)
(0.0640861 -6.67801e-05 -1.01295e-06)
(0.0640891 -6.72978e-05 -1.01305e-06)
(0.0640921 -6.78235e-05 -1.01316e-06)
(0.0640952 -6.83574e-05 -1.01326e-06)
(0.0640983 -6.88999e-05 -1.01337e-06)
(0.0641015 -6.94511e-05 -1.01347e-06)
(0.0641792 -6.95287e-05 -8.91114e-11)
(0.0639795 -5.98075e-05 -1.01073e-06)
(0.0639815 -6.02224e-05 -1.0108e-06)
(0.0639834 -6.06431e-05 -1.01088e-06)
(0.0639854 -6.10697e-05 -1.01096e-06)
(0.0639874 -6.15024e-05 -1.01103e-06)
(0.0639894 -6.19412e-05 -1.01111e-06)
(0.0639915 -6.23864e-05 -1.01119e-06)
(0.0639936 -6.2838e-05 -1.01128e-06)
(0.0639957 -6.32962e-05 -1.01136e-06)
(0.0639979 -6.37611e-05 -1.01144e-06)
(0.0640001 -6.42329e-05 -1.01153e-06)
(0.0640023 -6.47117e-05 -1.01161e-06)
(0.0640045 -6.51977e-05 -1.0117e-06)
(0.0640068 -6.56911e-05 -1.01179e-06)
(0.0640092 -6.6192e-05 -1.01188e-06)
(0.0640115 -6.67006e-05 -1.01197e-06)
(0.0640139 -6.7217e-05 -1.01207e-06)
(0.0640164 -6.77416e-05 -1.01216e-06)
(0.0640189 -6.82744e-05 -1.01226e-06)
(0.0640214 -6.88156e-05 -1.01236e-06)
(0.0640239 -6.93655e-05 -1.01246e-06)
(0.0641015 -6.94431e-05 -2.35274e-11)
(0.0639127 -5.97424e-05 -1.00985e-06)
(0.0639142 -6.01565e-05 -1.00992e-06)
(0.0639156 -6.05763e-05 -1.00999e-06)
(0.0639172 -6.10021e-05 -1.01006e-06)
(0.0639187 -6.14338e-05 -1.01013e-06)
(0.0639202 -6.18718e-05 -1.01021e-06)
(0.0639218 -6.2316e-05 -1.01028e-06)
(0.0639234 -6.27666e-05 -1.01036e-06)
(0.063925 -6.32239e-05 -1.01043e-06)
(0.0639266 -6.36878e-05 -1.01051e-06)
(0.0639283 -6.41586e-05 -1.01059e-06)
(0.06393 -6.46364e-05 -1.01067e-06)
(0.0639317 -6.51213e-05 -1.01075e-06)
(0.0639334 -6.56136e-05 -1.01083e-06)
(0.0639352 -6.61134e-05 -1.01091e-06)
(0.063937 -6.66209e-05 -1.011e-06)
(0.0639388 -6.71362e-05 -1.01108e-06)
(0.0639407 -6.76596e-05 -1.01117e-06)
(0.0639426 -6.81912e-05 -1.01126e-06)
(0.0639445 -6.87312e-05 -1.01135e-06)
(0.0639464 -6.92798e-05 -1.01144e-06)
(0.0640239 -6.93574e-05 4.18771e-11)
(0.0638459 -5.96772e-05 -1.00898e-06)
(0.0638469 -6.00904e-05 -1.00904e-06)
(0.063848 -6.05094e-05 -1.0091e-06)
(0.063849 -6.09343e-05 -1.00917e-06)
(0.06385 -6.13652e-05 -1.00923e-06)
(0.0638511 -6.18022e-05 -1.0093e-06)
(0.0638522 -6.22455e-05 -1.00937e-06)
(0.0638532 -6.26952e-05 -1.00944e-06)
(0.0638543 -6.31515e-05 -1.00951e-06)
(0.0638555 -6.36144e-05 -1.00958e-06)
(0.0638566 -6.40842e-05 -1.00965e-06)
(0.0638578 -6.4561e-05 -1.00972e-06)
(0.0638589 -6.50449e-05 -1.00979e-06)
(0.0638601 -6.55361e-05 -1.00987e-06)
(0.0638613 -6.60348e-05 -1.00995e-06)
(0.0638626 -6.65412e-05 -1.01002e-06)
(0.0638638 -6.70553e-05 -1.0101e-06)
(0.0638651 -6.75775e-05 -1.01018e-06)
(0.0638664 -6.81079e-05 -1.01026e-06)
(0.0638677 -6.86467e-05 -1.01034e-06)
(0.063869 -6.9194e-05 -1.01043e-06)
(0.0639464 -6.92715e-05 1.07068e-10)
(0.0637793 -5.96128e-05 -1.0081e-06)
(0.0637798 -6.00253e-05 -1.00816e-06)
(0.0637803 -6.04434e-05 -1.00822e-06)
(0.0637809 -6.08674e-05 -1.00828e-06)
(0.0637815 -6.12975e-05 -1.00834e-06)
(0.063782 -6.17336e-05 -1.0084e-06)
(0.0637826 -6.2176e-05 -1.00846e-06)
(0.0637832 -6.26248e-05 -1.00852e-06)
(0.0637838 -6.30801e-05 -1.00858e-06)
(0.0637844 -6.3542e-05 -1.00865e-06)
(0.063785 -6.40108e-05 -1.00871e-06)
(0.0637856 -6.44866e-05 -1.00878e-06)
(0.0637863 -6.49694e-05 -1.00884e-06)
(0.0637869 -6.54596e-05 -1.00891e-06)
(0.0637875 -6.59572e-05 -1.00898e-06)
(0.0637882 -6.64625e-05 -1.00905e-06)
(0.0637889 -6.69755e-05 -1.00912e-06)
(0.0637896 -6.74965e-05 -1.00919e-06)
(0.0637903 -6.80257e-05 -1.00926e-06)
(0.063791 -6.85633e-05 -1.00934e-06)
(0.0637917 -6.91094e-05 -1.00941e-06)
(0.063869 -6.91868e-05 1.99903e-10)
(0.0637099 -5.93844e-05 -1.00768e-06)
(0.06371 -5.97948e-05 -1.00774e-06)
(0.06371 -6.0211e-05 -1.00779e-06)
(0.0637101 -6.0633e-05 -1.00785e-06)
(0.0637101 -6.10609e-05 -1.0079e-06)
(0.0637102 -6.1495e-05 -1.00796e-06)
(0.0637103 -6.19352e-05 -1.00802e-06)
(0.0637103 -6.23818e-05 -1.00808e-06)
(0.0637104 -6.28349e-05 -1.00814e-06)
(0.0637105 -6.32946e-05 -1.0082e-06)
(0.0637105 -6.37611e-05 -1.00826e-06)
(0.0637106 -6.42345e-05 -1.00832e-06)
(0.0637107 -6.4715e-05 -1.00838e-06)
(0.0637107 -6.52028e-05 -1.00845e-06)
(0.0637108 -6.56979e-05 -1.00851e-06)
(0.0637109 -6.62006e-05 -1.00858e-06)
(0.063711 -6.67111e-05 -1.00865e-06)
(0.0637111 -6.72296e-05 -1.00871e-06)
(0.0637111 -6.77561e-05 -1.00878e-06)
(0.0637112 -6.8291e-05 -1.00885e-06)
(0.0637113 -6.88343e-05 -1.00893e-06)
(0.0637887 -6.8927e-05 -1.29663e-08)
)
;

boundaryField
{
    inlet
    {
        type            calculated;
        value           uniform (0.0741049 0 0);
    }
    outlet2
    {
        type            calculated;
        value           uniform (0.0741049 0 0);
    }
    outlet1
    {
        type            calculated;
        value           uniform (0.0741049 0 0);
    }
    wall
    {
        type            calculated;
        value           uniform (0.0741049 0 0);
    }
    symmetryBottom
    {
        type            symmetry;
    }
    symmetryZ0
    {
        type            symmetry;
    }
    symmetryZ05
    {
        type            symmetry;
    }
}


// ************************************************************************* //
