/*--------------------------------*- C++ -*----------------------------------*\
| =========                 |                                                 |
| \\      /  F ield         | OpenFOAM: The Open Source CFD Toolbox           |
|  \\    /   O peration     | Version:  2412                                  |
|   \\  /    A nd           | Website:  www.openfoam.com                      |
|    \\/     M anipulation  |                                                 |
\*---------------------------------------------------------------------------*/
FoamFile
{
    version     2.0;
    format      ascii;
    arch        "LSB;label=32;scalar=64";
    class       volVectorField;
    location    "1.16035e-06";
    object      rhoU_dof1;
}
// * * * * * * * * * * * * * * * * * * * * * * * * * * * * * * * * * * * * * //

dimensions      [0 0 0 0 0 0 0];

internalField   nonuniform List<vector> 
625
(
(0.0362593 4.44818e-07 3.44945e-06)
(-2.43115e-09 -1.64578e-13 2.81909e-06)
(-2.06328e-05 0.000169497 3.30152e-06)
(0.03626 -2.22006e-05 3.44963e-06)
(-2.43112e-09 2.9146e-12 2.81929e-06)
(-2.09415e-06 -1.4179e-07 3.26571e-06)
(0.0362601 -2.22096e-05 3.44953e-06)
(-2.43118e-09 2.90913e-12 2.81918e-06)
(-8.3309e-06 4.88511e-07 3.26615e-06)
(0.0362601 -2.22097e-05 3.44953e-06)
(-2.43118e-09 2.9091e-12 2.81918e-06)
(-8.30318e-06 4.85722e-07 3.26615e-06)
(0.0362601 -2.22097e-05 3.44953e-06)
(-2.43118e-09 2.9091e-12 2.81918e-06)
(-8.30327e-06 4.8573e-07 3.26615e-06)
(0.0362601 -2.22097e-05 3.44953e-06)
(-2.43118e-09 2.9091e-12 2.81918e-06)
(-8.30327e-06 4.8573e-07 3.26615e-06)
(0.0362601 -2.22097e-05 3.44953e-06)
(-2.43118e-09 2.9091e-12 2.81918e-06)
(-8.30327e-06 4.8573e-07 3.26615e-06)
(0.0362601 -2.22097e-05 3.44953e-06)
(-2.43118e-09 2.9091e-12 2.81918e-06)
(-8.30327e-06 4.8573e-07 3.26615e-06)
(0.0362601 -2.22097e-05 3.44953e-06)
(-2.43118e-09 2.9091e-12 2.81918e-06)
(-8.30327e-06 4.8573e-07 3.26615e-06)
(0.0362601 -2.22097e-05 3.44953e-06)
(-2.43118e-09 2.9091e-12 2.81918e-06)
(-8.30327e-06 4.8573e-07 3.26615e-06)
(0.0362601 -2.22097e-05 3.44953e-06)
(-2.43118e-09 2.9091e-12 2.81918e-06)
(-8.30327e-06 4.8573e-07 3.26615e-06)
(0.0362601 -2.22097e-05 3.44953e-06)
(-2.43118e-09 2.90911e-12 2.81918e-06)
(-8.30327e-06 4.8573e-07 3.26615e-06)
(0.0362601 -2.22097e-05 3.44953e-06)
(-2.43118e-09 2.9091e-12 2.81918e-06)
(-8.30327e-06 4.8573e-07 3.26615e-06)
(0.0362601 -2.22097e-05 3.44953e-06)
(-2.43118e-09 2.9091e-12 2.81918e-06)
(-8.30327e-06 4.8573e-07 3.26615e-06)
(0.0362601 -2.22097e-05 3.44953e-06)
(-2.43118e-09 2.9091e-12 2.81918e-06)
(-8.30327e-06 4.8573e-07 3.26615e-06)
(0.0362601 -2.22097e-05 3.44953e-06)
(-2.43118e-09 2.9091e-12 2.81918e-06)
(-8.30327e-06 4.8573e-07 3.26615e-06)
(0.0362601 -2.22097e-05 3.44953e-06)
(-2.43118e-09 2.9091e-12 2.81918e-06)
(-8.30327e-06 4.8573e-07 3.26615e-06)
(0.0362601 -2.22097e-05 3.44953e-06)
(-2.43118e-09 2.9091e-12 2.81918e-06)
(-8.30327e-06 4.8573e-07 3.26615e-06)
(0.0362601 -2.22097e-05 3.44953e-06)
(-2.43118e-09 2.9091e-12 2.81918e-06)
(-8.30327e-06 4.8573e-07 3.26615e-06)
(0.0362601 -2.22097e-05 3.44953e-06)
(-2.43118e-09 2.9091e-12 2.81918e-06)
(-8.30327e-06 4.8573e-07 3.26615e-06)
(0.0362601 -2.22097e-05 3.44953e-06)
(-2.43118e-09 2.9091e-12 2.81918e-06)
(-8.30327e-06 4.8573e-07 3.26615e-06)
(0.0362601 -2.22097e-05 3.44953e-06)
(-2.43118e-09 2.9091e-12 2.81918e-06)
(-8.30327e-06 4.8573e-07 3.26615e-06)
(0.0362601 -2.22097e-05 3.44953e-06)
(-2.43118e-09 2.90911e-12 2.81918e-06)
(-8.30266e-06 4.8567e-07 3.26613e-06)
(0.0362601 -2.22111e-05 3.44953e-06)
(-2.43118e-09 2.90958e-12 2.81918e-06)
(-8.50287e-06 5.04923e-07 3.28447e-06)
(0.0362684 -2.27125e-05 3.45028e-06)
(-2.43229e-09 3.09286e-12 2.81967e-06)
(-8.41615e-07 5.06957e-08 2.81484e-06)
(-8.6225e-05 -6.96316e-09 3.323e-06)
(-8.68176e-05 -7.10015e-09 3.32566e-06)
(-8.74185e-05 -7.24095e-09 3.32837e-06)
(-8.80277e-05 -7.38572e-09 3.33112e-06)
(-8.86454e-05 -7.53457e-09 3.33391e-06)
(-8.92719e-05 -7.68766e-09 3.33675e-06)
(-8.99073e-05 -7.84517e-09 3.33965e-06)
(-9.05518e-05 -8.00724e-09 3.34259e-06)
(-9.12056e-05 -8.17403e-09 3.34558e-06)
(-9.18689e-05 -8.34574e-09 3.34862e-06)
(-9.2542e-05 -8.52258e-09 3.35172e-06)
(-9.32249e-05 -8.70469e-09 3.35488e-06)
(-9.3918e-05 -8.89228e-09 3.35809e-06)
(-9.46216e-05 -9.08563e-09 3.36136e-06)
(-9.53357e-05 -9.28488e-09 3.36469e-06)
(-9.60607e-05 -9.49033e-09 3.36808e-06)
(-9.67967e-05 -9.70217e-09 3.37153e-06)
(-9.75442e-05 -9.92074e-09 3.37505e-06)
(-9.83033e-05 -1.01462e-08 3.37864e-06)
(-9.90744e-05 -1.0379e-08 3.38229e-06)
(-9.98575e-05 -1.06192e-08 3.38602e-06)
(-0.00623785 0.00024965 3.69521e-06)
(-8.86028e-05 7.46026e-08 3.07381e-06)
(-8.92286e-05 7.56446e-08 3.0743e-06)
(-8.98633e-05 7.67086e-08 3.0748e-06)
(-9.0507e-05 7.77952e-08 3.07531e-06)
(-9.11601e-05 7.8905e-08 3.07582e-06)
(-9.18227e-05 8.00388e-08 3.07635e-06)
(-9.24949e-05 8.11971e-08 3.07688e-06)
(-9.31771e-05 8.23808e-08 3.07742e-06)
(-9.38694e-05 8.35905e-08 3.07796e-06)
(-9.45721e-05 8.48271e-08 3.07851e-06)
(-9.52853e-05 8.60913e-08 3.07908e-06)
(-9.60094e-05 8.73839e-08 3.07965e-06)
(-9.67447e-05 8.87059e-08 3.08022e-06)
(-9.74911e-05 9.00581e-08 3.08081e-06)
(-9.82493e-05 9.14414e-08 3.08141e-06)
(-9.90193e-05 9.28568e-08 3.08201e-06)
(-9.98016e-05 9.43054e-08 3.08263e-06)
(-0.000100596 9.57881e-08 3.08325e-06)
(-0.000101404 9.7306e-08 3.08388e-06)
(-0.000102224 9.88603e-08 3.08453e-06)
(-0.000103058 1.00452e-07 3.08518e-06)
(0.000209194 2.03105e-05 3.34541e-06)
(-8.85169e-05 7.4837e-08 3.07173e-06)
(-8.91415e-05 7.58846e-08 3.07222e-06)
(-8.9775e-05 7.69544e-08 3.07271e-06)
(-9.04175e-05 7.80469e-08 3.07321e-06)
(-9.10693e-05 7.91629e-08 3.07372e-06)
(-9.17305e-05 8.0303e-08 3.07423e-06)
(-9.24014e-05 8.1468e-08 3.07476e-06)
(-9.30822e-05 8.26584e-08 3.07529e-06)
(-9.37731e-05 8.38752e-08 3.07582e-06)
(-9.44743e-05 8.5119e-08 3.07637e-06)
(-9.51861e-05 8.63907e-08 3.07693e-06)
(-9.59087e-05 8.76911e-08 3.07749e-06)
(-9.66424e-05 8.9021e-08 3.07806e-06)
(-9.73874e-05 9.03815e-08 3.07864e-06)
(-9.81439e-05 9.17735e-08 3.07923e-06)
(-9.89123e-05 9.31978e-08 3.07983e-06)
(-9.96927e-05 9.46555e-08 3.08043e-06)
(-0.000100486 9.61477e-08 3.08105e-06)
(-0.000101291 9.76755e-08 3.08168e-06)
(-0.00010211 9.924e-08 3.08231e-06)
(-0.000102942 1.00842e-07 3.08296e-06)
(9.64636e-05 3.34805e-07 3.35638e-06)
(-8.84324e-05 7.47589e-08 3.06881e-06)
(-8.90558e-05 7.58047e-08 3.06927e-06)
(-8.96881e-05 7.68727e-08 3.06975e-06)
(-9.03294e-05 7.79634e-08 3.07023e-06)
(-9.09799e-05 7.90774e-08 3.07071e-06)
(-9.16398e-05 8.02155e-08 3.0712e-06)
(-9.23094e-05 8.13784e-08 3.0717e-06)
(-9.29889e-05 8.25667e-08 3.07221e-06)
(-9.36784e-05 8.37812e-08 3.07273e-06)
(-9.43782e-05 8.50227e-08 3.07325e-06)
(-9.50886e-05 8.62921e-08 3.07378e-06)
(-9.58097e-05 8.759e-08 3.07432e-06)
(-9.65418e-05 8.89175e-08 3.07487e-06)
(-9.72853e-05 9.02754e-08 3.07542e-06)
(-9.80403e-05 9.16647e-08 3.07598e-06)
(-9.8807e-05 9.30862e-08 3.07656e-06)
(-9.95859e-05 9.45411e-08 3.07714e-06)
(-0.000100377 9.60303e-08 3.07773e-06)
(-0.000101181 9.7555e-08 3.07833e-06)
(-0.000101998 9.91164e-08 3.07894e-06)
(-0.000102828 1.00715e-07 3.07956e-06)
(9.71795e-05 6.5919e-07 3.35957e-06)
(-8.8348e-05 7.46984e-08 3.0659e-06)
(-8.89702e-05 7.5743e-08 3.06635e-06)
(-8.96012e-05 7.68096e-08 3.0668e-06)
(-9.02413e-05 7.7899e-08 3.06726e-06)
(-9.08905e-05 7.90116e-08 3.06772e-06)
(-9.15492e-05 8.01483e-08 3.06819e-06)
(-9.22175e-05 8.13097e-08 3.06867e-06)
(-9.28956e-05 8.24965e-08 3.06916e-06)
(-9.35837e-05 8.37095e-08 3.06965e-06)
(-9.42822e-05 8.49495e-08 3.07015e-06)
(-9.49911e-05 8.62171e-08 3.07066e-06)
(-9.57107e-05 8.75134e-08 3.07117e-06)
(-9.64415e-05 8.88392e-08 3.0717e-06)
(-9.71833e-05 9.01953e-08 3.07223e-06)
(-9.79367e-05 9.15827e-08 3.07276e-06)
(-9.87018e-05 9.30023e-08 3.07331e-06)
(-9.94791e-05 9.44552e-08 3.07387e-06)
(-0.000100269 9.59424e-08 3.07443e-06)
(-0.000101071 9.74651e-08 3.075e-06)
(-0.000101886 9.90242e-08 3.07559e-06)
(-0.000102714 1.00621e-07 3.07618e-06)
(9.79306e-05 6.74119e-07 3.36281e-06)
(-8.82636e-05 7.4638e-08 3.063e-06)
(-8.88846e-05 7.56813e-08 3.06343e-06)
(-8.95145e-05 7.67466e-08 3.06386e-06)
(-9.01533e-05 7.78346e-08 3.06429e-06)
(-9.08013e-05 7.89459e-08 3.06474e-06)
(-9.14586e-05 8.00811e-08 3.06519e-06)
(-9.21256e-05 8.12411e-08 3.06564e-06)
(-9.28024e-05 8.24264e-08 3.06611e-06)
(-9.34892e-05 8.36378e-08 3.06658e-06)
(-9.41862e-05 8.48762e-08 3.06705e-06)
(-9.48937e-05 8.61422e-08 3.06754e-06)
(-9.56119e-05 8.74368e-08 3.06803e-06)
(-9.6341e-05 8.87608e-08 3.06853e-06)
(-9.70815e-05 9.01151e-08 3.06903e-06)
(-9.78332e-05 9.15006e-08 3.06955e-06)
(-9.85968e-05 9.29184e-08 3.07007e-06)
(-9.93724e-05 9.43693e-08 3.0706e-06)
(-0.00010016 9.58545e-08 3.07114e-06)
(-0.000100961 9.7375e-08 3.07169e-06)
(-0.000101774 9.89321e-08 3.07224e-06)
(-0.000102601 1.00527e-07 3.07281e-06)
(9.86916e-05 6.91757e-07 3.36606e-06)
(-8.81793e-05 7.45775e-08 3.0601e-06)
(-8.87991e-05 7.56195e-08 3.06051e-06)
(-8.94277e-05 7.66836e-08 3.06092e-06)
(-9.00654e-05 7.77702e-08 3.06133e-06)
(-9.07121e-05 7.88801e-08 3.06176e-06)
(-9.13682e-05 8.0014e-08 3.06218e-06)
(-9.20339e-05 8.11724e-08 3.06262e-06)
(-9.27093e-05 8.23563e-08 3.06306e-06)
(-9.33947e-05 8.35661e-08 3.06351e-06)
(-9.40903e-05 8.48029e-08 3.06396e-06)
(-9.47964e-05 8.60673e-08 3.06442e-06)
(-9.55131e-05 8.73602e-08 3.06489e-06)
(-9.62408e-05 8.86825e-08 3.06536e-06)
(-9.69796e-05 9.0035e-08 3.06584e-06)
(-9.77299e-05 9.14187e-08 3.06633e-06)
(-9.84919e-05 9.28345e-08 3.06683e-06)
(-9.92658e-05 9.42835e-08 3.06734e-06)
(-0.000100052 9.57667e-08 3.06785e-06)
(-0.000100851 9.72851e-08 3.06837e-06)
(-0.000101662 9.88399e-08 3.0689e-06)
(-0.000102487 1.00432e-07 3.06944e-06)
(9.94726e-05 7.09428e-07 3.36931e-06)
(-8.8095e-05 7.45171e-08 3.0572e-06)
(-8.87137e-05 7.55579e-08 3.05759e-06)
(-8.93411e-05 7.66206e-08 3.05798e-06)
(-8.99775e-05 7.77059e-08 3.05837e-06)
(-9.0623e-05 7.88145e-08 3.05878e-06)
(-9.12779e-05 7.99469e-08 3.05918e-06)
(-9.19421e-05 8.11039e-08 3.05959e-06)
(-9.26163e-05 8.22862e-08 3.06001e-06)
(-9.33003e-05 8.34945e-08 3.06044e-06)
(-9.39945e-05 8.47297e-08 3.06087e-06)
(-9.46992e-05 8.59925e-08 3.06131e-06)
(-9.54145e-05 8.72837e-08 3.06175e-06)
(-9.61406e-05 8.86042e-08 3.0622e-06)
(-9.68779e-05 8.99549e-08 3.06266e-06)
(-9.76266e-05 9.13368e-08 3.06312e-06)
(-9.8387e-05 9.27507e-08 3.0636e-06)
(-9.91593e-05 9.41977e-08 3.06407e-06)
(-9.99438e-05 9.56789e-08 3.06456e-06)
(-0.000100741 9.71952e-08 3.06506e-06)
(-0.000101551 9.87479e-08 3.06556e-06)
(-0.000102374 1.00338e-07 3.06607e-06)
(0.000100274 7.27149e-07 3.37256e-06)
(-8.80108e-05 7.44567e-08 3.05431e-06)
(-8.86284e-05 7.54963e-08 3.05467e-06)
(-8.92546e-05 7.65577e-08 3.05504e-06)
(-8.98897e-05 7.76417e-08 3.05542e-06)
(-9.0534e-05 7.87488e-08 3.0558e-06)
(-9.11875e-05 7.98798e-08 3.05618e-06)
(-9.18506e-05 8.10354e-08 3.05657e-06)
(-9.25233e-05 8.22162e-08 3.05697e-06)
(-9.3206e-05 8.3423e-08 3.05737e-06)
(-9.38989e-05 8.46566e-08 3.05778e-06)
(-9.4602e-05 8.59177e-08 3.05819e-06)
(-9.53158e-05 8.72072e-08 3.05862e-06)
(-9.60406e-05 8.8526e-08 3.05904e-06)
(-9.67763e-05 8.98749e-08 3.05948e-06)
(-9.75234e-05 9.12549e-08 3.05992e-06)
(-9.82823e-05 9.2667e-08 3.06036e-06)
(-9.90528e-05 9.4112e-08 3.06082e-06)
(-9.98358e-05 9.55912e-08 3.06128e-06)
(-0.000100631 9.71054e-08 3.06175e-06)
(-0.000101439 9.86559e-08 3.06222e-06)
(-0.00010226 1.00244e-07 3.0627e-06)
(0.000101095 7.44922e-07 3.37583e-06)
(-8.79267e-05 7.43982e-08 3.05142e-06)
(-8.8543e-05 7.54365e-08 3.05176e-06)
(-8.91681e-05 7.64966e-08 3.05211e-06)
(-8.9802e-05 7.75793e-08 3.05246e-06)
(-9.0445e-05 7.86851e-08 3.05282e-06)
(-9.10973e-05 7.98147e-08 3.05318e-06)
(-9.1759e-05 8.09688e-08 3.05355e-06)
(-9.24304e-05 8.21481e-08 3.05393e-06)
(-9.31117e-05 8.33534e-08 3.05431e-06)
(-9.38031e-05 8.45854e-08 3.05469e-06)
(-9.4505e-05 8.58449e-08 3.05508e-06)
(-9.52173e-05 8.71328e-08 3.05548e-06)
(-9.59405e-05 8.84499e-08 3.05588e-06)
(-9.66748e-05 8.9797e-08 3.05629e-06)
(-9.74203e-05 9.11752e-08 3.05671e-06)
(-9.81775e-05 9.25853e-08 3.05713e-06)
(-9.89466e-05 9.40285e-08 3.05756e-06)
(-9.97277e-05 9.55056e-08 3.058e-06)
(-0.000100521 9.70178e-08 3.05844e-06)
(-0.000101328 9.85662e-08 3.05889e-06)
(-0.000102147 1.00152e-07 3.05934e-06)
(0.000101925 7.61913e-07 3.37908e-06)
(-8.78416e-05 7.44034e-08 3.04849e-06)
(-8.84567e-05 7.54413e-08 3.04881e-06)
(-8.90805e-05 7.6501e-08 3.04914e-06)
(-8.97132e-05 7.75833e-08 3.04947e-06)
(-9.03549e-05 7.86886e-08 3.04981e-06)
(-9.10059e-05 7.98178e-08 3.05015e-06)
(-9.16663e-05 8.09714e-08 3.0505e-06)
(-9.23364e-05 8.21503e-08 3.05085e-06)
(-9.30163e-05 8.3355e-08 3.05121e-06)
(-9.37064e-05 8.45865e-08 3.05157e-06)
(-9.44067e-05 8.58455e-08 3.05194e-06)
(-9.51176e-05 8.71327e-08 3.05231e-06)
(-9.58393e-05 8.84492e-08 3.05269e-06)
(-9.6572e-05 8.97957e-08 3.05308e-06)
(-9.7316e-05 9.11732e-08 3.05347e-06)
(-9.80716e-05 9.25826e-08 3.05386e-06)
(-9.88389e-05 9.4025e-08 3.05427e-06)
(-9.96184e-05 9.55014e-08 3.05468e-06)
(-0.00010041 9.70127e-08 3.05509e-06)
(-0.000101215 9.85603e-08 3.05551e-06)
(-0.000102032 1.00145e-07 3.05594e-06)
(0.000102195 7.42209e-07 3.37979e-06)
(-8.77565e-05 7.44087e-08 3.04556e-06)
(-8.83704e-05 7.54462e-08 3.04587e-06)
(-8.89931e-05 7.65056e-08 3.04617e-06)
(-8.96245e-05 7.75874e-08 3.04648e-06)
(-9.0265e-05 7.86924e-08 3.0468e-06)
(-9.09146e-05 7.98211e-08 3.04712e-06)
(-9.15737e-05 8.09743e-08 3.04745e-06)
(-9.22424e-05 8.21527e-08 3.04778e-06)
(-9.29211e-05 8.3357e-08 3.04811e-06)
(-9.36096e-05 8.45879e-08 3.04845e-06)
(-9.43086e-05 8.58463e-08 3.04879e-06)
(-9.5018e-05 8.7133e-08 3.04914e-06)
(-9.57381e-05 8.84489e-08 3.0495e-06)
(-9.64694e-05 8.97948e-08 3.04986e-06)
(-9.72117e-05 9.11716e-08 3.05023e-06)
(-9.79657e-05 9.25804e-08 3.0506e-06)
(-9.87314e-05 9.40221e-08 3.05097e-06)
(-9.95092e-05 9.54977e-08 3.05136e-06)
(-0.000100299 9.70083e-08 3.05175e-06)
(-0.000101102 9.85551e-08 3.05214e-06)
(-0.000101918 1.00139e-07 3.05254e-06)
(0.000102411 7.17679e-07 3.3778e-06)
(-8.76715e-05 7.44138e-08 3.04264e-06)
(-8.82843e-05 7.5451e-08 3.04292e-06)
(-8.89056e-05 7.651e-08 3.04321e-06)
(-8.95359e-05 7.75915e-08 3.0435e-06)
(-9.0175e-05 7.8696e-08 3.04379e-06)
(-9.08235e-05 7.98243e-08 3.04409e-06)
(-9.14812e-05 8.0977e-08 3.0444e-06)
(-9.21486e-05 8.21549e-08 3.0447e-06)
(-9.28258e-05 8.33587e-08 3.04502e-06)
(-9.35131e-05 8.45892e-08 3.04533e-06)
(-9.42105e-05 8.5847e-08 3.04565e-06)
(-9.49184e-05 8.71332e-08 3.04598e-06)
(-9.56371e-05 8.84485e-08 3.04631e-06)
(-9.63667e-05 8.97937e-08 3.04665e-06)
(-9.71076e-05 9.11699e-08 3.04699e-06)
(-9.78599e-05 9.2578e-08 3.04733e-06)
(-9.86241e-05 9.4019e-08 3.04769e-06)
(-9.94001e-05 9.54939e-08 3.04804e-06)
(-0.000100189 9.70037e-08 3.04841e-06)
(-0.00010099 9.85497e-08 3.04878e-06)
(-0.000101804 1.00133e-07 3.04915e-06)
(0.000102634 6.92403e-07 3.37574e-06)
(-8.75866e-05 7.44189e-08 3.03972e-06)
(-8.81981e-05 7.54557e-08 3.03998e-06)
(-8.88183e-05 7.65143e-08 3.04025e-06)
(-8.94473e-05 7.75953e-08 3.04052e-06)
(-9.00852e-05 7.86995e-08 3.04079e-06)
(-9.07323e-05 7.98273e-08 3.04107e-06)
(-9.13888e-05 8.09796e-08 3.04135e-06)
(-9.20549e-05 8.2157e-08 3.04163e-06)
(-9.27307e-05 8.33603e-08 3.04192e-06)
(-9.34164e-05 8.45902e-08 3.04222e-06)
(-9.41125e-05 8.58476e-08 3.04251e-06)
(-9.4819e-05 8.71332e-08 3.04282e-06)
(-9.55361e-05 8.84478e-08 3.04312e-06)
(-9.62643e-05 8.97925e-08 3.04344e-06)
(-9.70036e-05 9.11681e-08 3.04375e-06)
(-9.77543e-05 9.25755e-08 3.04407e-06)
(-9.85167e-05 9.40157e-08 3.0444e-06)
(-9.92911e-05 9.54898e-08 3.04473e-06)
(-0.000100078 9.69989e-08 3.04507e-06)
(-0.000100877 9.85441e-08 3.04541e-06)
(-0.000101689 1.00126e-07 3.04576e-06)
(0.000102865 6.66509e-07 3.37367e-06)
(-8.75017e-05 7.44237e-08 3.0368e-06)
(-8.81121e-05 7.54602e-08 3.03704e-06)
(-8.87311e-05 7.65184e-08 3.03729e-06)
(-8.93588e-05 7.75991e-08 3.03754e-06)
(-8.99955e-05 7.87028e-08 3.03779e-06)
(-9.06413e-05 7.98302e-08 3.03804e-06)
(-9.12965e-05 8.0982e-08 3.0383e-06)
(-9.19612e-05 8.2159e-08 3.03857e-06)
(-9.26356e-05 8.33618e-08 3.03883e-06)
(-9.332e-05 8.45911e-08 3.0391e-06)
(-9.40146e-05 8.58479e-08 3.03938e-06)
(-9.47196e-05 8.71329e-08 3.03966e-06)
(-9.54353e-05 8.8447e-08 3.03994e-06)
(-9.61619e-05 8.9791e-08 3.04023e-06)
(-9.68996e-05 9.1166e-08 3.04052e-06)
(-9.76487e-05 9.25727e-08 3.04082e-06)
(-9.84095e-05 9.40122e-08 3.04112e-06)
(-9.91823e-05 9.54856e-08 3.04142e-06)
(-9.99672e-05 9.69939e-08 3.04173e-06)
(-0.000100765 9.85382e-08 3.04205e-06)
(-0.000101575 1.0012e-07 3.04237e-06)
(0.000103105 6.39999e-07 3.3716e-06)
(-8.74169e-05 7.44285e-08 3.03389e-06)
(-8.80262e-05 7.54645e-08 3.03411e-06)
(-8.86439e-05 7.65224e-08 3.03433e-06)
(-8.92704e-05 7.76026e-08 3.03456e-06)
(-8.99058e-05 7.87059e-08 3.03479e-06)
(-9.05504e-05 7.98329e-08 3.03502e-06)
(-9.12042e-05 8.09843e-08 3.03526e-06)
(-9.18676e-05 8.21607e-08 3.0355e-06)
(-9.25406e-05 8.3363e-08 3.03575e-06)
(-9.32237e-05 8.45919e-08 3.036e-06)
(-9.39168e-05 8.58481e-08 3.03625e-06)
(-9.46203e-05 8.71325e-08 3.0365e-06)
(-9.53346e-05 8.8446e-08 3.03676e-06)
(-9.60595e-05 8.97894e-08 3.03702e-06)
(-9.67957e-05 9.11636e-08 3.03729e-06)
(-9.75432e-05 9.25697e-08 3.03756e-06)
(-9.83024e-05 9.40085e-08 3.03784e-06)
(-9.90734e-05 9.54811e-08 3.03812e-06)
(-9.98567e-05 9.69886e-08 3.0384e-06)
(-0.000100652 9.85321e-08 3.03869e-06)
(-0.000101461 1.00113e-07 3.03899e-06)
(0.000103352 6.12876e-07 3.36952e-06)
(-8.73322e-05 7.44331e-08 3.03097e-06)
(-8.79402e-05 7.54687e-08 3.03118e-06)
(-8.85568e-05 7.65262e-08 3.03138e-06)
(-8.9182e-05 7.7606e-08 3.03159e-06)
(-8.98162e-05 7.87089e-08 3.03179e-06)
(-9.04595e-05 7.98354e-08 3.03201e-06)
(-9.1112e-05 8.09863e-08 3.03222e-06)
(-9.1774e-05 8.21623e-08 3.03244e-06)
(-9.24458e-05 8.33641e-08 3.03266e-06)
(-9.31273e-05 8.45924e-08 3.03289e-06)
(-9.38191e-05 8.58481e-08 3.03312e-06)
(-9.45212e-05 8.71319e-08 3.03335e-06)
(-9.52338e-05 8.84448e-08 3.03358e-06)
(-9.59574e-05 8.97876e-08 3.03382e-06)
(-9.66919e-05 9.11611e-08 3.03407e-06)
(-9.74379e-05 9.25665e-08 3.03431e-06)
(-9.81954e-05 9.40045e-08 3.03456e-06)
(-9.89648e-05 9.54764e-08 3.03482e-06)
(-9.97463e-05 9.69831e-08 3.03508e-06)
(-0.00010054 9.85258e-08 3.03534e-06)
(-0.000101347 1.00106e-07 3.0356e-06)
(0.000103609 5.85141e-07 3.36745e-06)
(-8.72475e-05 7.44375e-08 3.02806e-06)
(-8.78544e-05 7.54728e-08 3.02824e-06)
(-8.84697e-05 7.65298e-08 3.02843e-06)
(-8.90938e-05 7.76093e-08 3.02861e-06)
(-8.97267e-05 7.87117e-08 3.0288e-06)
(-9.03687e-05 7.98378e-08 3.02899e-06)
(-9.10199e-05 8.09882e-08 3.02919e-06)
(-9.16806e-05 8.21637e-08 3.02938e-06)
(-9.23509e-05 8.33649e-08 3.02958e-06)
(-9.30312e-05 8.45927e-08 3.02978e-06)
(-9.37215e-05 8.58479e-08 3.02999e-06)
(-9.44221e-05 8.71311e-08 3.0302e-06)
(-9.51333e-05 8.84433e-08 3.03041e-06)
(-9.58552e-05 8.97855e-08 3.03063e-06)
(-9.65883e-05 9.11584e-08 3.03084e-06)
(-9.73326e-05 9.2563e-08 3.03107e-06)
(-9.80885e-05 9.40004e-08 3.03129e-06)
(-9.88562e-05 9.54715e-08 3.03152e-06)
(-9.96361e-05 9.69774e-08 3.03175e-06)
(-0.000100428 9.85192e-08 3.03199e-06)
(-0.000101233 1.00098e-07 3.03223e-06)
(0.000103873 5.56799e-07 3.36537e-06)
(-8.7163e-05 7.44417e-08 3.02516e-06)
(-8.77686e-05 7.54766e-08 3.02532e-06)
(-8.83828e-05 7.65333e-08 3.02548e-06)
(-8.90056e-05 7.76123e-08 3.02564e-06)
(-8.96373e-05 7.87143e-08 3.02581e-06)
(-9.0278e-05 7.98399e-08 3.02598e-06)
(-9.09279e-05 8.09899e-08 3.02615e-06)
(-9.15873e-05 8.21649e-08 3.02633e-06)
(-9.22562e-05 8.33656e-08 3.0265e-06)
(-9.2935e-05 8.45928e-08 3.02668e-06)
(-9.36239e-05 8.58474e-08 3.02687e-06)
(-9.43231e-05 8.71301e-08 3.02705e-06)
(-9.50328e-05 8.84417e-08 3.02724e-06)
(-9.57533e-05 8.97832e-08 3.02743e-06)
(-9.64847e-05 9.11554e-08 3.02762e-06)
(-9.72274e-05 9.25593e-08 3.02782e-06)
(-9.79817e-05 9.3996e-08 3.02802e-06)
(-9.87477e-05 9.54663e-08 3.02822e-06)
(-9.95259e-05 9.69714e-08 3.02843e-06)
(-0.000100316 9.85124e-08 3.02864e-06)
(-0.000101119 1.0009e-07 3.02885e-06)
(0.000104146 5.27852e-07 3.36329e-06)
(-8.70784e-05 7.44457e-08 3.02225e-06)
(-8.7683e-05 7.54803e-08 3.02239e-06)
(-8.82959e-05 7.65365e-08 3.02253e-06)
(-8.89175e-05 7.76151e-08 3.02268e-06)
(-8.9548e-05 7.87167e-08 3.02282e-06)
(-9.01873e-05 7.98419e-08 3.02297e-06)
(-9.0836e-05 8.09914e-08 3.02312e-06)
(-9.14939e-05 8.21658e-08 3.02327e-06)
(-9.21616e-05 8.3366e-08 3.02343e-06)
(-9.28391e-05 8.45928e-08 3.02359e-06)
(-9.35264e-05 8.58467e-08 3.02375e-06)
(-9.42242e-05 8.71288e-08 3.02391e-06)
(-9.49324e-05 8.84398e-08 3.02407e-06)
(-9.56513e-05 8.97806e-08 3.02424e-06)
(-9.63812e-05 9.11521e-08 3.02441e-06)
(-9.71224e-05 9.25554e-08 3.02458e-06)
(-9.7875e-05 9.39913e-08 3.02475e-06)
(-9.86394e-05 9.54608e-08 3.02493e-06)
(-9.94158e-05 9.69651e-08 3.02511e-06)
(-0.000100204 9.85052e-08 3.02529e-06)
(-0.000101006 1.00082e-07 3.02548e-06)
(0.000104427 4.98302e-07 3.36121e-06)
(-8.6994e-05 7.44496e-08 3.01935e-06)
(-8.75973e-05 7.54838e-08 3.01947e-06)
(-8.82091e-05 7.65396e-08 3.01959e-06)
(-8.88295e-05 7.76178e-08 3.01971e-06)
(-8.94586e-05 7.87189e-08 3.01984e-06)
(-9.00968e-05 7.98436e-08 3.01996e-06)
(-9.07441e-05 8.09926e-08 3.02009e-06)
(-9.14008e-05 8.21666e-08 3.02022e-06)
(-9.2067e-05 8.33662e-08 3.02036e-06)
(-9.2743e-05 8.45924e-08 3.02049e-06)
(-9.34291e-05 8.58458e-08 3.02063e-06)
(-9.41254e-05 8.71273e-08 3.02077e-06)
(-9.48321e-05 8.84376e-08 3.02091e-06)
(-9.55495e-05 8.97778e-08 3.02105e-06)
(-9.62779e-05 9.11487e-08 3.02119e-06)
(-9.70174e-05 9.25512e-08 3.02134e-06)
(-9.77684e-05 9.39863e-08 3.02149e-06)
(-9.85311e-05 9.54551e-08 3.02164e-06)
(-9.93058e-05 9.69585e-08 3.0218e-06)
(-0.000100093 9.84978e-08 3.02195e-06)
(-0.000100892 1.00074e-07 3.02211e-06)
(0.000104716 4.68154e-07 3.35913e-06)
(-8.69097e-05 7.44533e-08 3.01645e-06)
(-8.75118e-05 7.5487e-08 3.01655e-06)
(-8.81224e-05 7.65425e-08 3.01665e-06)
(-8.87416e-05 7.76202e-08 3.01675e-06)
(-8.93695e-05 7.87209e-08 3.01685e-06)
(-9.00063e-05 7.98451e-08 3.01696e-06)
(-9.06523e-05 8.09936e-08 3.01707e-06)
(-9.13077e-05 8.21671e-08 3.01718e-06)
(-9.19725e-05 8.33662e-08 3.01729e-06)
(-9.26472e-05 8.45918e-08 3.0174e-06)
(-9.33318e-05 8.58446e-08 3.01751e-06)
(-9.40267e-05 8.71255e-08 3.01763e-06)
(-9.47319e-05 8.84352e-08 3.01774e-06)
(-9.54478e-05 8.97747e-08 3.01786e-06)
(-9.61746e-05 9.11449e-08 3.01798e-06)
(-9.69125e-05 9.25467e-08 3.01811e-06)
(-9.76619e-05 9.3981e-08 3.01823e-06)
(-9.8423e-05 9.5449e-08 3.01836e-06)
(-9.9196e-05 9.69517e-08 3.01849e-06)
(-9.99812e-05 9.84901e-08 3.01862e-06)
(-0.000100779 1.00065e-07 3.01875e-06)
(0.000105014 4.37409e-07 3.35704e-06)
(-8.68254e-05 7.44567e-08 3.01355e-06)
(-8.74263e-05 7.54901e-08 3.01363e-06)
(-8.80358e-05 7.65451e-08 3.01371e-06)
(-8.86536e-05 7.76224e-08 3.01379e-06)
(-8.92803e-05 7.87226e-08 3.01387e-06)
(-8.99159e-05 7.98464e-08 3.01396e-06)
(-9.05606e-05 8.09944e-08 3.01404e-06)
(-9.12146e-05 8.21673e-08 3.01413e-06)
(-9.18782e-05 8.3366e-08 3.01422e-06)
(-9.25514e-05 8.4591e-08 3.01431e-06)
(-9.32347e-05 8.58432e-08 3.0144e-06)
(-9.3928e-05 8.71235e-08 3.01449e-06)
(-9.46317e-05 8.84326e-08 3.01458e-06)
(-9.53462e-05 8.97714e-08 3.01468e-06)
(-9.60714e-05 9.11408e-08 3.01478e-06)
(-9.68078e-05 9.25419e-08 3.01487e-06)
(-9.75555e-05 9.39755e-08 3.01497e-06)
(-9.83149e-05 9.54427e-08 3.01507e-06)
(-9.90862e-05 9.69445e-08 3.01518e-06)
(-9.98698e-05 9.84821e-08 3.01528e-06)
(-0.000100666 1.00056e-07 3.01539e-06)
(0.000105319 4.0606e-07 3.35496e-06)
(-8.67412e-05 7.44638e-08 3.01065e-06)
(-8.73411e-05 7.54968e-08 3.01071e-06)
(-8.79492e-05 7.65515e-08 3.01077e-06)
(-8.85659e-05 7.76285e-08 3.01084e-06)
(-8.91913e-05 7.87283e-08 3.0109e-06)
(-8.98257e-05 7.98517e-08 3.01096e-06)
(-9.04691e-05 8.09993e-08 3.01103e-06)
(-9.11218e-05 8.21718e-08 3.01109e-06)
(-9.17839e-05 8.337e-08 3.01116e-06)
(-9.24559e-05 8.45946e-08 3.01122e-06)
(-9.31376e-05 8.58463e-08 3.01129e-06)
(-9.38295e-05 8.7126e-08 3.01136e-06)
(-9.45319e-05 8.84346e-08 3.01143e-06)
(-9.52446e-05 8.97728e-08 3.0115e-06)
(-9.59684e-05 9.11417e-08 3.01157e-06)
(-9.67031e-05 9.25421e-08 3.01165e-06)
(-9.74493e-05 9.39751e-08 3.01172e-06)
(-9.8207e-05 9.54416e-08 3.0118e-06)
(-9.89766e-05 9.69427e-08 3.01187e-06)
(-9.97584e-05 9.84795e-08 3.01195e-06)
(-0.000100553 1.00053e-07 3.01203e-06)
(0.000105585 3.77633e-07 3.35278e-06)
(-8.66739e-05 7.54927e-08 3.00833e-06)
(-8.72728e-05 7.65398e-08 3.00837e-06)
(-8.78801e-05 7.76088e-08 3.00842e-06)
(-8.84958e-05 7.87004e-08 3.00846e-06)
(-8.91203e-05 7.98151e-08 3.00851e-06)
(-8.97535e-05 8.09537e-08 3.00855e-06)
(-9.03959e-05 8.21168e-08 3.0086e-06)
(-9.10476e-05 8.33052e-08 3.00865e-06)
(-9.17087e-05 8.45196e-08 3.00869e-06)
(-9.23794e-05 8.57607e-08 3.00874e-06)
(-9.30601e-05 8.70294e-08 3.00879e-06)
(-9.37509e-05 8.83264e-08 3.00884e-06)
(-9.44519e-05 8.96526e-08 3.00889e-06)
(-9.51636e-05 9.1009e-08 3.00895e-06)
(-9.58861e-05 9.23964e-08 3.009e-06)
(-9.66196e-05 9.38157e-08 3.00905e-06)
(-9.73644e-05 9.52679e-08 3.00911e-06)
(-9.81209e-05 9.67542e-08 3.00916e-06)
(-9.88891e-05 9.82755e-08 3.00922e-06)
(-9.96695e-05 9.9833e-08 3.00928e-06)
(-0.000100462 1.01428e-07 3.00933e-06)
(0.000114859 -1.7634e-07 3.39022e-06)
)
;

boundaryField
{
    inlet
    {
        type            calculated;
        value           uniform (0 0 0);
    }
    outlet2
    {
        type            calculated;
        value           uniform (0 0 0);
    }
    outlet1
    {
        type            calculated;
        value           uniform (0 0 0);
    }
    wall
    {
        type            calculated;
        value           uniform (0 0 0);
    }
    symmetryBottom
    {
        type            symmetry;
    }
    symmetryZ0
    {
        type            symmetry;
    }
    symmetryZ05
    {
        type            symmetry;
    }
}


// ************************************************************************* //
