/*--------------------------------*- C++ -*----------------------------------*\
| =========                 |                                                 |
| \\      /  F ield         | OpenFOAM: The Open Source CFD Toolbox           |
|  \\    /   O peration     | Version:  2412                                  |
|   \\  /    A nd           | Website:  www.openfoam.com                      |
|    \\/     M anipulation  |                                                 |
\*---------------------------------------------------------------------------*/
FoamFile
{
    version     2.0;
    format      ascii;
    arch        "LSB;label=32;scalar=64";
    class       volVectorField;
    location    "1.16035e-06";
    object      rhoU_dof2;
}
// * * * * * * * * * * * * * * * * * * * * * * * * * * * * * * * * * * * * * //

dimensions      [0 0 0 0 0 0 0];

internalField   nonuniform List<vector> 
625
(
(1.20212e-05 -0.000189671 6.63219e-10)
(2.06099e-05 -0.000166139 6.9333e-10)
(-1.16313e-07 3.41698e-06 -0.000628744)
(-8.77407e-06 4.65257e-06 5.49821e-10)
(1.82965e-06 3.49971e-06 5.54526e-10)
(-4.86306e-07 3.42899e-06 -0.000628786)
(-1.83186e-06 3.95194e-06 6.28846e-10)
(8.0655e-06 2.86997e-06 6.44132e-10)
(-4.85551e-07 3.42888e-06 -0.000628763)
(-1.86224e-06 3.95499e-06 6.28654e-10)
(8.03779e-06 2.87276e-06 6.43895e-10)
(-4.85554e-07 3.42888e-06 -0.000628763)
(-1.86215e-06 3.95498e-06 6.28655e-10)
(8.03787e-06 2.87275e-06 6.43896e-10)
(-4.85554e-07 3.42888e-06 -0.000628763)
(-1.86215e-06 3.95498e-06 6.28655e-10)
(8.03787e-06 2.87275e-06 6.43896e-10)
(-4.85554e-07 3.42888e-06 -0.000628763)
(-1.86215e-06 3.95498e-06 6.28655e-10)
(8.03787e-06 2.87275e-06 6.43896e-10)
(-4.85554e-07 3.42888e-06 -0.000628763)
(-1.86215e-06 3.95498e-06 6.28655e-10)
(8.03787e-06 2.87275e-06 6.43896e-10)
(-4.85554e-07 3.42888e-06 -0.000628763)
(-1.86215e-06 3.95498e-06 6.28655e-10)
(8.03787e-06 2.87275e-06 6.43896e-10)
(-4.85554e-07 3.42888e-06 -0.000628763)
(-1.86215e-06 3.95498e-06 6.28655e-10)
(8.03787e-06 2.87275e-06 6.43896e-10)
(-4.85554e-07 3.42888e-06 -0.000628763)
(-1.86215e-06 3.95498e-06 6.28655e-10)
(8.03787e-06 2.87275e-06 6.43896e-10)
(-4.85554e-07 3.42888e-06 -0.000628763)
(-1.86215e-06 3.95498e-06 6.28655e-10)
(8.03787e-06 2.87275e-06 6.43896e-10)
(-4.85554e-07 3.42888e-06 -0.000628763)
(-1.86215e-06 3.95498e-06 6.28655e-10)
(8.03787e-06 2.87275e-06 6.43896e-10)
(-4.85554e-07 3.42888e-06 -0.000628763)
(-1.86215e-06 3.95498e-06 6.28655e-10)
(8.03787e-06 2.87275e-06 6.43896e-10)
(-4.85554e-07 3.42888e-06 -0.000628763)
(-1.86215e-06 3.95498e-06 6.28655e-10)
(8.03787e-06 2.87275e-06 6.43896e-10)
(-4.85554e-07 3.42888e-06 -0.000628763)
(-1.86215e-06 3.95498e-06 6.28655e-10)
(8.03787e-06 2.87275e-06 6.43896e-10)
(-4.85554e-07 3.42888e-06 -0.000628763)
(-1.86215e-06 3.95498e-06 6.28655e-10)
(8.03787e-06 2.87275e-06 6.43896e-10)
(-4.85554e-07 3.42888e-06 -0.000628763)
(-1.86215e-06 3.95498e-06 6.28655e-10)
(8.03787e-06 2.87275e-06 6.43896e-10)
(-4.85554e-07 3.42888e-06 -0.000628763)
(-1.86215e-06 3.95498e-06 6.28655e-10)
(8.03787e-06 2.87275e-06 6.43896e-10)
(-4.85554e-07 3.42888e-06 -0.000628763)
(-1.86215e-06 3.95498e-06 6.28655e-10)
(8.03787e-06 2.87275e-06 6.43896e-10)
(-4.85554e-07 3.42888e-06 -0.000628763)
(-1.86215e-06 3.95498e-06 6.28655e-10)
(8.03787e-06 2.87275e-06 6.43896e-10)
(-4.85554e-07 3.42888e-06 -0.000628763)
(-1.86215e-06 3.95498e-06 6.28655e-10)
(8.03787e-06 2.87275e-06 6.43896e-10)
(-4.85553e-07 3.42888e-06 -0.000628763)
(-1.86214e-06 3.95498e-06 6.28653e-10)
(8.03778e-06 2.87276e-06 6.43894e-10)
(-4.84331e-07 3.42879e-06 -0.000628763)
(-1.86495e-06 3.95525e-06 6.28434e-10)
(8.07705e-06 2.86983e-06 6.43796e-10)
(4.69132e-07 3.36943e-06 -0.000628764)
(-6.67546e-07 3.88586e-06 -4.64735e-12)
(-6.99635e-07 3.39993e-06 -5.74342e-12)
(-8.86295e-07 3.41868e-06 1.41284e-08)
(0.00538637 -0.000205456 6.2932e-09)
(0.00542315 -0.000207151 6.39012e-09)
(0.00546044 -0.000208874 6.48939e-09)
(0.00549824 -0.000210626 6.59109e-09)
(0.00553657 -0.000212407 6.69529e-09)
(0.00557544 -0.000214218 6.80209e-09)
(0.00561485 -0.000216059 6.91157e-09)
(0.00565483 -0.000217932 7.02381e-09)
(0.00569538 -0.000219837 7.13893e-09)
(0.00573651 -0.000221775 7.25701e-09)
(0.00577824 -0.000223747 7.37816e-09)
(0.00582058 -0.000225754 7.50249e-09)
(0.00586355 -0.000227797 7.63012e-09)
(0.00590715 -0.000229877 7.76116e-09)
(0.00595141 -0.000231994 7.89574e-09)
(0.00599633 -0.000234151 8.03399e-09)
(0.00604194 -0.000236347 8.17604e-09)
(0.00608824 -0.000238584 8.32204e-09)
(0.00613526 -0.000240863 8.47213e-09)
(0.00618301 -0.000243186 8.62648e-09)
(0.0062315 -0.000245554 8.78525e-09)
(3.2822e-08 3.94768e-06 -0.000722577)
(-0.00016503 -1.11628e-05 2.73527e-09)
(-0.000166806 -1.13856e-05 2.7554e-09)
(-0.000168616 -1.16136e-05 2.77583e-09)
(-0.000170461 -1.18471e-05 2.79655e-09)
(-0.000172341 -1.2086e-05 2.81759e-09)
(-0.000174258 -1.23307e-05 2.83893e-09)
(-0.000176213 -1.25814e-05 2.8606e-09)
(-0.000178207 -1.28381e-05 2.88259e-09)
(-0.00018024 -1.31012e-05 2.90492e-09)
(-0.000182315 -1.33708e-05 2.92759e-09)
(-0.000184431 -1.36471e-05 2.9506e-09)
(-0.000186591 -1.39304e-05 2.97398e-09)
(-0.000188796 -1.42209e-05 2.99772e-09)
(-0.000191046 -1.45189e-05 3.02184e-09)
(-0.000193344 -1.48245e-05 3.04634e-09)
(-0.000195691 -1.51382e-05 3.07123e-09)
(-0.000198087 -1.54601e-05 3.09652e-09)
(-0.000200535 -1.57905e-05 3.12223e-09)
(-0.000203037 -1.61299e-05 3.14835e-09)
(-0.000205593 -1.64784e-05 3.17491e-09)
(-0.000208205 -1.68364e-05 3.2019e-09)
(-5.75418e-07 3.61851e-06 -0.000664037)
(-8.17538e-05 3.06793e-06 2.48105e-09)
(-8.23521e-05 3.06961e-06 2.4984e-09)
(-8.29591e-05 3.07141e-06 2.51599e-09)
(-8.35751e-05 3.07334e-06 2.53383e-09)
(-8.42003e-05 3.07539e-06 2.55193e-09)
(-8.48348e-05 3.07758e-06 2.57028e-09)
(-8.54791e-05 3.07991e-06 2.5889e-09)
(-8.61332e-05 3.08239e-06 2.60779e-09)
(-8.67973e-05 3.08502e-06 2.62696e-09)
(-8.74717e-05 3.0878e-06 2.64641e-09)
(-8.81567e-05 3.09076e-06 2.66615e-09)
(-8.88524e-05 3.09389e-06 2.68619e-09)
(-8.95592e-05 3.09721e-06 2.70653e-09)
(-9.02774e-05 3.10071e-06 2.72718e-09)
(-9.1007e-05 3.10441e-06 2.74815e-09)
(-9.17486e-05 3.10833e-06 2.76943e-09)
(-9.25023e-05 3.11246e-06 2.79105e-09)
(-9.32685e-05 3.11681e-06 2.81301e-09)
(-9.40475e-05 3.12141e-06 2.83532e-09)
(-9.48395e-05 3.12626e-06 2.85798e-09)
(-9.5645e-05 3.13137e-06 2.88101e-09)
(-5.84761e-07 3.61578e-06 -0.000663523)
(-8.24449e-05 2.86695e-06 2.39352e-09)
(-8.30451e-05 2.86422e-06 2.41033e-09)
(-8.36542e-05 2.86149e-06 2.42737e-09)
(-8.42721e-05 2.85874e-06 2.44466e-09)
(-8.48992e-05 2.85599e-06 2.4622e-09)
(-8.55357e-05 2.85322e-06 2.47999e-09)
(-8.61818e-05 2.85044e-06 2.49803e-09)
(-8.68377e-05 2.84765e-06 2.51635e-09)
(-8.75036e-05 2.84485e-06 2.53493e-09)
(-8.81796e-05 2.84205e-06 2.55379e-09)
(-8.88663e-05 2.83923e-06 2.57294e-09)
(-8.95637e-05 2.8364e-06 2.59237e-09)
(-9.02719e-05 2.83357e-06 2.6121e-09)
(-9.09916e-05 2.83073e-06 2.63213e-09)
(-9.17227e-05 2.82788e-06 2.65247e-09)
(-9.24655e-05 2.82503e-06 2.67313e-09)
(-9.32205e-05 2.82217e-06 2.69411e-09)
(-9.39878e-05 2.8193e-06 2.71543e-09)
(-9.47679e-05 2.81643e-06 2.73708e-09)
(-9.55609e-05 2.81356e-06 2.75908e-09)
(-9.63672e-05 2.81069e-06 2.78144e-09)
(-5.84096e-07 3.61186e-06 -0.000662796)
(-8.31447e-05 2.85817e-06 2.30118e-09)
(-8.37478e-05 2.85533e-06 2.31734e-09)
(-8.43595e-05 2.85247e-06 2.33372e-09)
(-8.49804e-05 2.84961e-06 2.35034e-09)
(-8.56103e-05 2.84673e-06 2.3672e-09)
(-8.62497e-05 2.84383e-06 2.3843e-09)
(-8.68986e-05 2.84093e-06 2.40166e-09)
(-8.75574e-05 2.83801e-06 2.41926e-09)
(-8.82261e-05 2.83508e-06 2.43713e-09)
(-8.89052e-05 2.83214e-06 2.45526e-09)
(-8.95947e-05 2.82919e-06 2.47366e-09)
(-9.0295e-05 2.82622e-06 2.49234e-09)
(-9.10064e-05 2.82325e-06 2.51131e-09)
(-9.17288e-05 2.82027e-06 2.53057e-09)
(-9.24629e-05 2.81727e-06 2.55012e-09)
(-9.32087e-05 2.81427e-06 2.56998e-09)
(-9.39668e-05 2.81127e-06 2.59015e-09)
(-9.4737e-05 2.80825e-06 2.61064e-09)
(-9.55201e-05 2.80523e-06 2.63146e-09)
(-9.6316e-05 2.8022e-06 2.65261e-09)
(-9.71255e-05 2.79917e-06 2.6741e-09)
(-5.83555e-07 3.60797e-06 -0.000662075)
(-8.3854e-05 2.84792e-06 2.20893e-09)
(-8.44599e-05 2.84493e-06 2.22444e-09)
(-8.50746e-05 2.84191e-06 2.24017e-09)
(-8.56982e-05 2.83888e-06 2.25613e-09)
(-8.63311e-05 2.83583e-06 2.27231e-09)
(-8.69733e-05 2.83276e-06 2.28873e-09)
(-8.76252e-05 2.82967e-06 2.30538e-09)
(-8.82868e-05 2.82657e-06 2.32228e-09)
(-8.89586e-05 2.82346e-06 2.33944e-09)
(-8.96405e-05 2.82033e-06 2.35684e-09)
(-9.03331e-05 2.81718e-06 2.37451e-09)
(-9.10363e-05 2.81402e-06 2.39244e-09)
(-9.17505e-05 2.81084e-06 2.41065e-09)
(-9.24761e-05 2.80765e-06 2.42914e-09)
(-9.3213e-05 2.80445e-06 2.44791e-09)
(-9.39619e-05 2.80123e-06 2.46697e-09)
(-9.47228e-05 2.798e-06 2.48633e-09)
(-9.54962e-05 2.79475e-06 2.506e-09)
(-9.62821e-05 2.7915e-06 2.52599e-09)
(-9.70812e-05 2.78823e-06 2.54629e-09)
(-9.78935e-05 2.78495e-06 2.56693e-09)
(-5.83013e-07 3.60408e-06 -0.000661354)
(-8.45783e-05 2.83766e-06 2.11669e-09)
(-8.51873e-05 2.8345e-06 2.13155e-09)
(-8.5805e-05 2.83132e-06 2.14663e-09)
(-8.64318e-05 2.82812e-06 2.16192e-09)
(-8.70678e-05 2.8249e-06 2.17743e-09)
(-8.77131e-05 2.82166e-06 2.19316e-09)
(-8.83681e-05 2.8184e-06 2.20912e-09)
(-8.90329e-05 2.81512e-06 2.22532e-09)
(-8.97078e-05 2.81182e-06 2.24175e-09)
(-9.0393e-05 2.80849e-06 2.25843e-09)
(-9.10887e-05 2.80515e-06 2.27536e-09)
(-9.17951e-05 2.80179e-06 2.29255e-09)
(-9.25126e-05 2.79841e-06 2.31e-09)
(-9.32412e-05 2.79501e-06 2.32771e-09)
(-9.39816e-05 2.79159e-06 2.3457e-09)
(-9.47337e-05 2.78816e-06 2.36397e-09)
(-9.54978e-05 2.7847e-06 2.38253e-09)
(-9.62744e-05 2.78123e-06 2.40138e-09)
(-9.70637e-05 2.77774e-06 2.42053e-09)
(-9.7866e-05 2.77423e-06 2.43999e-09)
(-9.86817e-05 2.77071e-06 2.45976e-09)
(-5.82473e-07 3.6002e-06 -0.000660635)
(-8.53176e-05 2.82737e-06 2.02445e-09)
(-8.59298e-05 2.82405e-06 2.03867e-09)
(-8.65509e-05 2.82071e-06 2.05309e-09)
(-8.71809e-05 2.81734e-06 2.06771e-09)
(-8.78202e-05 2.81395e-06 2.08255e-09)
(-8.8469e-05 2.81053e-06 2.0976e-09)
(-8.91273e-05 2.80709e-06 2.11287e-09)
(-8.97955e-05 2.80363e-06 2.12836e-09)
(-9.04738e-05 2.80014e-06 2.14408e-09)
(-9.11623e-05 2.79663e-06 2.16003e-09)
(-9.18615e-05 2.79309e-06 2.17623e-09)
(-9.25714e-05 2.78953e-06 2.19267e-09)
(-9.32923e-05 2.78594e-06 2.20936e-09)
(-9.40246e-05 2.78233e-06 2.2263e-09)
(-9.47683e-05 2.7787e-06 2.24351e-09)
(-9.55239e-05 2.77505e-06 2.26098e-09)
(-9.62917e-05 2.77137e-06 2.27873e-09)
(-9.70718e-05 2.76767e-06 2.29676e-09)
(-9.78647e-05 2.76394e-06 2.31508e-09)
(-9.86706e-05 2.76019e-06 2.33369e-09)
(-9.94898e-05 2.75642e-06 2.35261e-09)
(-5.81932e-07 3.59632e-06 -0.000659916)
(-8.6072e-05 2.81706e-06 1.93223e-09)
(-8.66877e-05 2.81358e-06 1.9458e-09)
(-8.73122e-05 2.81007e-06 1.95957e-09)
(-8.79458e-05 2.80653e-06 1.97353e-09)
(-8.85887e-05 2.80297e-06 1.98769e-09)
(-8.92409e-05 2.79938e-06 2.00205e-09)
(-8.99029e-05 2.79576e-06 2.01663e-09)
(-9.05747e-05 2.79211e-06 2.03142e-09)
(-9.12566e-05 2.78843e-06 2.04642e-09)
(-9.19489e-05 2.78473e-06 2.06165e-09)
(-9.26516e-05 2.78099e-06 2.07711e-09)
(-9.33652e-05 2.77723e-06 2.0928e-09)
(-9.409e-05 2.77344e-06 2.10873e-09)
(-9.48259e-05 2.76962e-06 2.1249e-09)
(-9.55735e-05 2.76577e-06 2.14133e-09)
(-9.6333e-05 2.7619e-06 2.15801e-09)
(-9.71045e-05 2.75799e-06 2.17495e-09)
(-9.78885e-05 2.75406e-06 2.19216e-09)
(-9.86852e-05 2.7501e-06 2.20965e-09)
(-9.9495e-05 2.74611e-06 2.22742e-09)
(-0.000100318 2.74209e-06 2.24547e-09)
(-5.81392e-07 3.59244e-06 -0.000659197)
(-8.68303e-05 2.80747e-06 1.83918e-09)
(-8.74496e-05 2.80383e-06 1.8521e-09)
(-8.80779e-05 2.80016e-06 1.86519e-09)
(-8.87152e-05 2.79645e-06 1.87848e-09)
(-8.93618e-05 2.79272e-06 1.89195e-09)
(-9.00179e-05 2.78895e-06 1.90562e-09)
(-9.06836e-05 2.78515e-06 1.91949e-09)
(-9.13593e-05 2.78132e-06 1.93356e-09)
(-9.20451e-05 2.77745e-06 1.94784e-09)
(-9.27412e-05 2.77355e-06 1.96259e-09)
(-9.3448e-05 2.76963e-06 1.9773e-09)
(-9.41656e-05 2.76566e-06 1.99224e-09)
(-9.48942e-05 2.76167e-06 2.0074e-09)
(-9.56343e-05 2.75764e-06 2.02279e-09)
(-9.63859e-05 2.75358e-06 2.03843e-09)
(-9.71494e-05 2.74948e-06 2.0543e-09)
(-9.79251e-05 2.74535e-06 2.07043e-09)
(-9.87132e-05 2.74119e-06 2.08681e-09)
(-9.95141e-05 2.737e-06 2.10345e-09)
(-0.000100328 2.73276e-06 2.12036e-09)
(-0.000101155 2.7285e-06 2.13754e-09)
(-5.80674e-07 3.58858e-06 -0.00065848)
(-8.71265e-05 2.82708e-06 1.78892e-09)
(-8.77463e-05 2.82349e-06 1.80146e-09)
(-8.83749e-05 2.81987e-06 1.81418e-09)
(-8.90127e-05 2.81623e-06 1.82708e-09)
(-8.96597e-05 2.81254e-06 1.84017e-09)
(-9.03162e-05 2.80883e-06 1.85344e-09)
(-9.09824e-05 2.80509e-06 1.8669e-09)
(-9.16584e-05 2.80131e-06 1.88058e-09)
(-9.23445e-05 2.7975e-06 1.8945e-09)
(-9.3041e-05 2.79365e-06 1.90858e-09)
(-9.37481e-05 2.78978e-06 1.92286e-09)
(-9.44659e-05 2.78587e-06 1.93736e-09)
(-9.51948e-05 2.78192e-06 1.95207e-09)
(-9.5935e-05 2.77794e-06 1.96701e-09)
(-9.66869e-05 2.77393e-06 1.98219e-09)
(-9.74506e-05 2.76988e-06 1.9976e-09)
(-9.82264e-05 2.7658e-06 2.01325e-09)
(-9.90147e-05 2.76168e-06 2.02914e-09)
(-9.98157e-05 2.75753e-06 2.04529e-09)
(-0.00010063 2.75334e-06 2.0617e-09)
(-0.000101457 2.74912e-06 2.07838e-09)
(-5.80218e-07 3.58472e-06 -0.000657752)
(-8.74085e-05 2.84774e-06 1.74018e-09)
(-8.80282e-05 2.84425e-06 1.75238e-09)
(-8.8657e-05 2.84073e-06 1.76474e-09)
(-8.92946e-05 2.83717e-06 1.77728e-09)
(-8.99415e-05 2.83359e-06 1.79e-09)
(-9.05978e-05 2.82997e-06 1.8029e-09)
(-9.12639e-05 2.82632e-06 1.81599e-09)
(-9.19397e-05 2.82264e-06 1.82927e-09)
(-9.26257e-05 2.81893e-06 1.8428e-09)
(-9.33218e-05 2.81519e-06 1.8565e-09)
(-9.40286e-05 2.81141e-06 1.87039e-09)
(-9.47461e-05 2.8076e-06 1.88448e-09)
(-9.54747e-05 2.80375e-06 1.89878e-09)
(-9.62146e-05 2.79988e-06 1.9133e-09)
(-9.69659e-05 2.79597e-06 1.92805e-09)
(-9.77291e-05 2.79202e-06 1.94303e-09)
(-9.85043e-05 2.78804e-06 1.95824e-09)
(-9.9292e-05 2.78403e-06 1.97369e-09)
(-0.000100092 2.77998e-06 1.98939e-09)
(-0.000100906 2.7759e-06 2.00534e-09)
(-0.000101732 2.77178e-06 2.02154e-09)
(-5.80417e-07 3.58079e-06 -0.000657026)
(-8.76963e-05 2.86889e-06 1.69159e-09)
(-8.83162e-05 2.8655e-06 1.70346e-09)
(-8.89449e-05 2.86208e-06 1.71547e-09)
(-8.95826e-05 2.85863e-06 1.72764e-09)
(-9.02295e-05 2.85514e-06 1.74e-09)
(-9.08859e-05 2.85163e-06 1.75254e-09)
(-9.15517e-05 2.84809e-06 1.76525e-09)
(-9.22275e-05 2.84451e-06 1.77815e-09)
(-9.29132e-05 2.84091e-06 1.79126e-09)
(-9.36094e-05 2.83727e-06 1.80459e-09)
(-9.43158e-05 2.8336e-06 1.81808e-09)
(-9.50331e-05 2.8299e-06 1.83176e-09)
(-9.57615e-05 2.82616e-06 1.84566e-09)
(-9.65009e-05 2.8224e-06 1.85976e-09)
(-9.72519e-05 2.8186e-06 1.87408e-09)
(-9.80147e-05 2.81476e-06 1.88863e-09)
(-9.87896e-05 2.8109e-06 1.90341e-09)
(-9.95767e-05 2.807e-06 1.91841e-09)
(-0.000100376 2.80306e-06 1.93366e-09)
(-0.000101189 2.7991e-06 1.94915e-09)
(-0.000102015 2.79509e-06 1.96489e-09)
(-5.80517e-07 3.57686e-06 -0.0006563)
(-8.79903e-05 2.89052e-06 1.64314e-09)
(-8.86103e-05 2.88723e-06 1.65468e-09)
(-8.92392e-05 2.88392e-06 1.66634e-09)
(-8.9877e-05 2.88058e-06 1.67816e-09)
(-9.0524e-05 2.8772e-06 1.69015e-09)
(-9.11803e-05 2.8738e-06 1.70232e-09)
(-9.18463e-05 2.87037e-06 1.71466e-09)
(-9.25221e-05 2.86691e-06 1.72718e-09)
(-9.32078e-05 2.86341e-06 1.73989e-09)
(-9.39038e-05 2.85989e-06 1.75282e-09)
(-9.46102e-05 2.85634e-06 1.76593e-09)
(-9.53274e-05 2.85275e-06 1.77921e-09)
(-9.60555e-05 2.84913e-06 1.7927e-09)
(-9.67948e-05 2.84548e-06 1.80639e-09)
(-9.75456e-05 2.8418e-06 1.82029e-09)
(-9.83081e-05 2.83809e-06 1.83441e-09)
(-9.90825e-05 2.83434e-06 1.84875e-09)
(-9.98693e-05 2.83057e-06 1.86331e-09)
(-0.000100669 2.82676e-06 1.87811e-09)
(-0.000101481 2.82291e-06 1.89314e-09)
(-0.000102306 2.81904e-06 1.90841e-09)
(-5.80616e-07 3.57294e-06 -0.000655575)
(-8.82904e-05 2.91262e-06 1.59485e-09)
(-8.89107e-05 2.90945e-06 1.60604e-09)
(-8.95398e-05 2.90625e-06 1.61735e-09)
(-9.01778e-05 2.90302e-06 1.62882e-09)
(-9.0825e-05 2.89976e-06 1.64046e-09)
(-9.14815e-05 2.89648e-06 1.65226e-09)
(-9.21476e-05 2.89316e-06 1.66422e-09)
(-9.28234e-05 2.88982e-06 1.67637e-09)
(-9.35092e-05 2.88645e-06 1.68869e-09)
(-9.42052e-05 2.88305e-06 1.70121e-09)
(-9.49117e-05 2.87961e-06 1.71395e-09)
(-9.56289e-05 2.87615e-06 1.72683e-09)
(-9.63569e-05 2.87266e-06 1.7399e-09)
(-9.70961e-05 2.86914e-06 1.75318e-09)
(-9.78468e-05 2.86558e-06 1.76666e-09)
(-9.86091e-05 2.862e-06 1.78035e-09)
(-9.93834e-05 2.85838e-06 1.79427e-09)
(-0.00010017 2.85473e-06 1.80839e-09)
(-0.000100969 2.85105e-06 1.82274e-09)
(-0.000101781 2.84734e-06 1.83731e-09)
(-0.000102606 2.8436e-06 1.85212e-09)
(-5.80715e-07 3.56902e-06 -0.00065485)
(-8.85966e-05 2.9352e-06 1.54671e-09)
(-8.92173e-05 2.93214e-06 1.55754e-09)
(-8.98466e-05 2.92906e-06 1.56852e-09)
(-9.0485e-05 2.92596e-06 1.57963e-09)
(-9.11324e-05 2.92282e-06 1.59091e-09)
(-9.17892e-05 2.91966e-06 1.60235e-09)
(-9.24555e-05 2.91647e-06 1.61394e-09)
(-9.31315e-05 2.91325e-06 1.62571e-09)
(-9.38175e-05 2.91001e-06 1.63765e-09)
(-9.45138e-05 2.90673e-06 1.64977e-09)
(-9.52203e-05 2.90343e-06 1.66211e-09)
(-9.59375e-05 2.9001e-06 1.67461e-09)
(-9.66657e-05 2.89674e-06 1.68728e-09)
(-9.74049e-05 2.89335e-06 1.70014e-09)
(-9.81556e-05 2.88993e-06 1.7132e-09)
(-9.89178e-05 2.88648e-06 1.72647e-09)
(-9.96921e-05 2.883e-06 1.73995e-09)
(-0.000100478 2.87949e-06 1.75364e-09)
(-0.000101277 2.87596e-06 1.76754e-09)
(-0.000102089 2.87239e-06 1.78166e-09)
(-0.000102914 2.86879e-06 1.79601e-09)
(-5.80813e-07 3.56511e-06 -0.000654126)
(-8.89089e-05 2.95824e-06 1.49872e-09)
(-8.95299e-05 2.95532e-06 1.50919e-09)
(-9.01598e-05 2.95236e-06 1.51983e-09)
(-9.07984e-05 2.94938e-06 1.53059e-09)
(-9.14463e-05 2.94638e-06 1.54151e-09)
(-9.21034e-05 2.94335e-06 1.55259e-09)
(-9.277e-05 2.94029e-06 1.56382e-09)
(-9.34464e-05 2.9372e-06 1.57521e-09)
(-9.41327e-05 2.93409e-06 1.58677e-09)
(-9.48291e-05 2.93095e-06 1.5985e-09)
(-9.5536e-05 2.92779e-06 1.61043e-09)
(-9.62534e-05 2.92459e-06 1.62255e-09)
(-9.69817e-05 2.92137e-06 1.63482e-09)
(-9.77211e-05 2.91812e-06 1.64727e-09)
(-9.84718e-05 2.91485e-06 1.65992e-09)
(-9.92342e-05 2.91154e-06 1.67276e-09)
(-0.000100008 2.90821e-06 1.68581e-09)
(-0.000100795 2.90485e-06 1.69907e-09)
(-0.000101594 2.90146e-06 1.71252e-09)
(-0.000102406 2.89804e-06 1.7262e-09)
(-0.00010323 2.8946e-06 1.74009e-09)
(-5.80911e-07 3.56119e-06 -0.000653403)
(-8.92272e-05 2.98176e-06 1.45087e-09)
(-8.98488e-05 2.97896e-06 1.46099e-09)
(-9.0479e-05 2.97614e-06 1.47128e-09)
(-9.11183e-05 2.9733e-06 1.4817e-09)
(-9.17666e-05 2.97043e-06 1.49227e-09)
(-9.24241e-05 2.96753e-06 1.50298e-09)
(-9.30912e-05 2.96461e-06 1.51385e-09)
(-9.3768e-05 2.96167e-06 1.52487e-09)
(-9.44546e-05 2.95869e-06 1.53605e-09)
(-9.51515e-05 2.9557e-06 1.5474e-09)
(-9.58587e-05 2.95268e-06 1.55892e-09)
(-9.65764e-05 2.94963e-06 1.57064e-09)
(-9.7305e-05 2.94656e-06 1.58252e-09)
(-9.80446e-05 2.94346e-06 1.59457e-09)
(-9.87957e-05 2.94033e-06 1.6068e-09)
(-9.95582e-05 2.93718e-06 1.61922e-09)
(-0.000100333 2.934e-06 1.63185e-09)
(-0.000101119 2.9308e-06 1.64467e-09)
(-0.000101918 2.92756e-06 1.65768e-09)
(-0.00010273 2.9243e-06 1.67091e-09)
(-0.000103555 2.92102e-06 1.68434e-09)
(-5.81008e-07 3.55729e-06 -0.000652681)
(-8.95515e-05 3.00574e-06 1.40317e-09)
(-9.01737e-05 3.00308e-06 1.41295e-09)
(-9.08046e-05 3.0004e-06 1.42288e-09)
(-9.14444e-05 2.99769e-06 1.43296e-09)
(-9.20932e-05 2.99496e-06 1.44317e-09)
(-9.27514e-05 2.99221e-06 1.45353e-09)
(-9.34189e-05 2.98944e-06 1.46403e-09)
(-9.40963e-05 2.98664e-06 1.47468e-09)
(-9.47834e-05 2.98382e-06 1.48548e-09)
(-9.54807e-05 2.98097e-06 1.49645e-09)
(-9.61884e-05 2.9781e-06 1.50758e-09)
(-9.69066e-05 2.97521e-06 1.51889e-09)
(-9.76355e-05 2.97229e-06 1.53039e-09)
(-9.83756e-05 2.96934e-06 1.54203e-09)
(-9.91269e-05 2.96638e-06 1.55385e-09)
(-9.98898e-05 2.96339e-06 1.56585e-09)
(-0.000100665 2.96037e-06 1.57805e-09)
(-0.000101451 2.95733e-06 1.59045e-09)
(-0.000102251 2.95426e-06 1.60302e-09)
(-0.000103063 2.95117e-06 1.6158e-09)
(-0.000103888 2.94806e-06 1.62878e-09)
(-5.81104e-07 3.55338e-06 -0.000651959)
(-8.98818e-05 3.03018e-06 1.35561e-09)
(-9.05048e-05 3.02767e-06 1.36505e-09)
(-9.11363e-05 3.02513e-06 1.37463e-09)
(-9.17767e-05 3.02257e-06 1.38437e-09)
(-9.24263e-05 3.01999e-06 1.39423e-09)
(-9.3085e-05 3.01739e-06 1.40423e-09)
(-9.37533e-05 3.01476e-06 1.41437e-09)
(-9.44312e-05 3.01212e-06 1.42465e-09)
(-9.5119e-05 3.00945e-06 1.43508e-09)
(-9.58169e-05 3.00676e-06 1.44566e-09)
(-9.6525e-05 3.00405e-06 1.45641e-09)
(-9.72437e-05 3.00132e-06 1.46731e-09)
(-9.79733e-05 2.99856e-06 1.47842e-09)
(-9.87138e-05 2.99578e-06 1.48966e-09)
(-9.94656e-05 2.99298e-06 1.50107e-09)
(-0.000100229 2.99016e-06 1.51266e-09)
(-0.000101004 2.98731e-06 1.52443e-09)
(-0.000101792 2.98445e-06 1.5364e-09)
(-0.000102591 2.98155e-06 1.54854e-09)
(-0.000103403 2.97864e-06 1.56087e-09)
(-0.000104229 2.97571e-06 1.5734e-09)
(-5.81199e-07 3.54948e-06 -0.000651239)
(-9.02181e-05 3.05509e-06 1.3082e-09)
(-9.08418e-05 3.05272e-06 1.3173e-09)
(-9.14742e-05 3.05033e-06 1.32654e-09)
(-9.21154e-05 3.04792e-06 1.33592e-09)
(-9.27656e-05 3.0455e-06 1.34544e-09)
(-9.34252e-05 3.04305e-06 1.35508e-09)
(-9.40941e-05 3.04059e-06 1.36486e-09)
(-9.47728e-05 3.0381e-06 1.37477e-09)
(-9.54613e-05 3.0356e-06 1.38483e-09)
(-9.61598e-05 3.03307e-06 1.39504e-09)
(-9.68687e-05 3.03053e-06 1.4054e-09)
(-9.75881e-05 3.02796e-06 1.41591e-09)
(-9.83182e-05 3.02538e-06 1.4266e-09)
(-9.90594e-05 3.02277e-06 1.43746e-09)
(-9.98118e-05 3.02014e-06 1.44846e-09)
(-0.000100576 3.0175e-06 1.45963e-09)
(-0.000101352 3.01483e-06 1.47098e-09)
(-0.000102139 3.01214e-06 1.48252e-09)
(-0.000102939 3.00944e-06 1.49423e-09)
(-0.000103752 3.00671e-06 1.50612e-09)
(-0.000104578 3.00396e-06 1.5182e-09)
(-5.81293e-07 3.54559e-06 -0.000650518)
(-9.05604e-05 3.08044e-06 1.26093e-09)
(-9.11849e-05 3.07823e-06 1.2697e-09)
(-9.18181e-05 3.076e-06 1.27859e-09)
(-9.24603e-05 3.07375e-06 1.28762e-09)
(-9.31114e-05 3.07149e-06 1.2968e-09)
(-9.37717e-05 3.06921e-06 1.30609e-09)
(-9.44416e-05 3.06691e-06 1.3155e-09)
(-9.5121e-05 3.06459e-06 1.32505e-09)
(-9.58103e-05 3.06225e-06 1.33474e-09)
(-9.65097e-05 3.0599e-06 1.34457e-09)
(-9.72193e-05 3.05753e-06 1.35455e-09)
(-9.79395e-05 3.05514e-06 1.36467e-09)
(-9.86704e-05 3.05273e-06 1.37495e-09)
(-9.94122e-05 3.0503e-06 1.38542e-09)
(-0.000100165 3.04786e-06 1.39602e-09)
(-0.00010093 3.0454e-06 1.40678e-09)
(-0.000101706 3.04292e-06 1.41771e-09)
(-0.000102495 3.04042e-06 1.42882e-09)
(-0.000103296 3.03791e-06 1.4401e-09)
(-0.000104109 3.03537e-06 1.45155e-09)
(-0.000104935 3.03282e-06 1.46319e-09)
(-5.81386e-07 3.5417e-06 -0.000649799)
(-9.09087e-05 3.10626e-06 1.2138e-09)
(-9.15341e-05 3.10421e-06 1.22224e-09)
(-9.21684e-05 3.10215e-06 1.23079e-09)
(-9.28114e-05 3.10006e-06 1.23947e-09)
(-9.34635e-05 3.09797e-06 1.24829e-09)
(-9.41248e-05 3.09585e-06 1.25724e-09)
(-9.47956e-05 3.09372e-06 1.2663e-09)
(-9.54759e-05 3.09158e-06 1.27548e-09)
(-9.61662e-05 3.08942e-06 1.2848e-09)
(-9.68664e-05 3.08724e-06 1.29426e-09)
(-9.75769e-05 3.08505e-06 1.30386e-09)
(-9.8298e-05 3.08285e-06 1.3136e-09)
(-9.90297e-05 3.08062e-06 1.32348e-09)
(-9.97725e-05 3.07839e-06 1.33353e-09)
(-0.000100526 3.07613e-06 1.34375e-09)
(-0.000101292 3.07387e-06 1.35409e-09)
(-0.000102069 3.07158e-06 1.3646e-09)
(-0.000102858 3.06928e-06 1.37529e-09)
(-0.00010366 3.06697e-06 1.38614e-09)
(-0.000104474 3.06464e-06 1.39716e-09)
(-0.000105301 3.0623e-06 1.40835e-09)
(-5.81478e-07 3.53781e-06 -0.00064908)
(-9.12254e-05 3.12975e-06 1.16668e-09)
(-9.18516e-05 3.12783e-06 1.17478e-09)
(-9.24863e-05 3.1259e-06 1.183e-09)
(-9.31299e-05 3.12395e-06 1.19133e-09)
(-9.37824e-05 3.12198e-06 1.19978e-09)
(-9.44443e-05 3.12e-06 1.20835e-09)
(-9.51154e-05 3.11801e-06 1.21704e-09)
(-9.57963e-05 3.116e-06 1.22587e-09)
(-9.64869e-05 3.11398e-06 1.23481e-09)
(-9.71876e-05 3.11195e-06 1.2439e-09)
(-9.78984e-05 3.1099e-06 1.25313e-09)
(-9.86198e-05 3.10784e-06 1.26249e-09)
(-9.9352e-05 3.10576e-06 1.272e-09)
(-0.000100095 3.10367e-06 1.28164e-09)
(-0.000100849 3.10156e-06 1.29142e-09)
(-0.000101615 3.09945e-06 1.30136e-09)
(-0.000102392 3.09731e-06 1.31145e-09)
(-0.000103182 3.09517e-06 1.32169e-09)
(-0.000103984 3.09301e-06 1.3321e-09)
(-0.000104798 3.09084e-06 1.34268e-09)
(-0.000105625 3.08865e-06 1.35342e-09)
(-5.81612e-07 3.53393e-06 -0.000648362)
(-9.96828e-05 3.64574e-06 4.36468e-10)
(-0.000100368 3.64739e-06 4.39473e-10)
(-0.000101062 3.64906e-06 4.42518e-10)
(-0.000101766 3.65078e-06 4.45607e-10)
(-0.00010248 3.65253e-06 4.48738e-10)
(-0.000103204 3.65433e-06 4.51914e-10)
(-0.000103938 3.65616e-06 4.55136e-10)
(-0.000104683 3.65803e-06 4.58403e-10)
(-0.000105438 3.65995e-06 4.61718e-10)
(-0.000106205 3.6619e-06 4.65081e-10)
(-0.000106983 3.66391e-06 4.68494e-10)
(-0.000107772 3.66596e-06 4.71957e-10)
(-0.000108573 3.66805e-06 4.75471e-10)
(-0.000109386 3.6702e-06 4.79038e-10)
(-0.000110211 3.6724e-06 4.82659e-10)
(-0.000111049 3.67464e-06 4.86336e-10)
(-0.0001119 3.67695e-06 4.90068e-10)
(-0.000112763 3.6793e-06 4.93859e-10)
(-0.000113641 3.68172e-06 4.97708e-10)
(-0.000114531 3.68419e-06 5.01618e-10)
(-0.000115436 3.68673e-06 5.0559e-10)
(-5.91161e-07 3.53154e-06 -0.000647801)
)
;

boundaryField
{
    inlet
    {
        type            calculated;
        value           uniform (0 0 0);
    }
    outlet2
    {
        type            calculated;
        value           uniform (0 0 0);
    }
    outlet1
    {
        type            calculated;
        value           uniform (0 0 0);
    }
    wall
    {
        type            calculated;
        value           uniform (0 0 0);
    }
    symmetryBottom
    {
        type            symmetry;
    }
    symmetryZ0
    {
        type            symmetry;
    }
    symmetryZ05
    {
        type            symmetry;
    }
}


// ************************************************************************* //
