/*--------------------------------*- C++ -*----------------------------------*\
| =========                 |                                                 |
| \\      /  F ield         | OpenFOAM: The Open Source CFD Toolbox           |
|  \\    /   O peration     | Version:  2412                                  |
|   \\  /    A nd           | Website:  www.openfoam.com                      |
|    \\/     M anipulation  |                                                 |
\*---------------------------------------------------------------------------*/
FoamFile
{
    version     2.0;
    format      ascii;
    arch        "LSB;label=32;scalar=64";
    class       volVectorField;
    location    "1.16035e-06";
    object      rhoU_dof3;
}
// * * * * * * * * * * * * * * * * * * * * * * * * * * * * * * * * * * * * * //

dimensions      [0 0 0 0 0 0 0];

internalField   nonuniform List<vector> 
625
(
(0.000659601 8.16803e-09 -0.0007217)
(0.000575054 5.99346e-09 -0.000628748)
(0.000484742 3.87e-09 2.58513e-11)
(0.00065962 -5.41306e-07 -0.000721746)
(0.000575071 -4.85562e-07 -0.000628789)
(0.000484757 -4.16243e-07 -3.01902e-12)
(0.00065962 -5.41344e-07 -0.000721719)
(0.000575071 -4.85593e-07 -0.000628765)
(0.000484756 -4.16217e-07 -3.84955e-12)
(0.00065962 -5.41346e-07 -0.000721719)
(0.000575071 -4.85595e-07 -0.000628765)
(0.000484756 -4.16218e-07 -3.84839e-12)
(0.00065962 -5.41346e-07 -0.000721719)
(0.000575071 -4.85595e-07 -0.000628765)
(0.000484756 -4.16218e-07 -3.84839e-12)
(0.00065962 -5.41346e-07 -0.000721719)
(0.000575071 -4.85595e-07 -0.000628765)
(0.000484756 -4.16218e-07 -3.84839e-12)
(0.00065962 -5.41346e-07 -0.000721719)
(0.000575071 -4.85595e-07 -0.000628765)
(0.000484756 -4.16218e-07 -3.84839e-12)
(0.00065962 -5.41346e-07 -0.000721719)
(0.000575071 -4.85595e-07 -0.000628765)
(0.000484756 -4.16218e-07 -3.84839e-12)
(0.00065962 -5.41346e-07 -0.000721719)
(0.000575071 -4.85595e-07 -0.000628765)
(0.000484756 -4.16218e-07 -3.84839e-12)
(0.00065962 -5.41346e-07 -0.000721719)
(0.000575071 -4.85595e-07 -0.000628765)
(0.000484756 -4.16218e-07 -3.84839e-12)
(0.00065962 -5.41346e-07 -0.000721719)
(0.000575071 -4.85595e-07 -0.000628765)
(0.000484756 -4.16218e-07 -3.84839e-12)
(0.00065962 -5.41346e-07 -0.000721719)
(0.000575071 -4.85595e-07 -0.000628765)
(0.000484756 -4.16218e-07 -3.84839e-12)
(0.00065962 -5.41346e-07 -0.000721719)
(0.000575071 -4.85595e-07 -0.000628765)
(0.000484756 -4.16218e-07 -3.84839e-12)
(0.00065962 -5.41346e-07 -0.000721719)
(0.000575071 -4.85595e-07 -0.000628765)
(0.000484756 -4.16218e-07 -3.84839e-12)
(0.00065962 -5.41346e-07 -0.000721719)
(0.000575071 -4.85595e-07 -0.000628765)
(0.000484756 -4.16218e-07 -3.84839e-12)
(0.00065962 -5.41346e-07 -0.000721719)
(0.000575071 -4.85595e-07 -0.000628765)
(0.000484756 -4.16218e-07 -3.84839e-12)
(0.00065962 -5.41346e-07 -0.000721719)
(0.000575071 -4.85595e-07 -0.000628765)
(0.000484756 -4.16218e-07 -3.84839e-12)
(0.00065962 -5.41346e-07 -0.000721719)
(0.000575071 -4.85595e-07 -0.000628765)
(0.000484756 -4.16218e-07 -3.84839e-12)
(0.00065962 -5.41346e-07 -0.000721719)
(0.000575071 -4.85595e-07 -0.000628765)
(0.000484756 -4.16218e-07 -3.84839e-12)
(0.00065962 -5.41346e-07 -0.000721719)
(0.000575071 -4.85595e-07 -0.000628765)
(0.000484756 -4.16218e-07 -3.8484e-12)
(0.00065962 -5.41346e-07 -0.000721719)
(0.000575071 -4.85595e-07 -0.000628765)
(0.000484756 -4.16218e-07 -3.84839e-12)
(0.00065962 -5.41346e-07 -0.000721719)
(0.000575071 -4.85595e-07 -0.000628765)
(0.000484756 -4.16218e-07 -3.84991e-12)
(0.00065962 -5.41346e-07 -0.000721719)
(0.000575071 -4.85595e-07 -0.000628765)
(0.000484755 -4.16146e-07 -7.29514e-12)
(0.00065962 -5.41374e-07 -0.00072172)
(0.000575071 -4.8562e-07 -0.000628765)
(0.000484016 -3.71586e-07 -4.30098e-09)
(0.000659784 -5.51275e-07 -0.000721885)
(0.000575196 -4.93196e-07 -0.000628889)
(0.000574095 -4.24042e-07 -0.00062889)
(0.000592937 4.90168e-08 -0.000714315)
(0.000592929 4.96253e-08 -0.000714852)
(0.000592921 5.02466e-08 -0.000715397)
(0.000592913 5.08812e-08 -0.000715952)
(0.000592905 5.15295e-08 -0.000716516)
(0.000592896 5.21919e-08 -0.00071709)
(0.000592888 5.28688e-08 -0.000717674)
(0.000592879 5.35606e-08 -0.000718267)
(0.000592871 5.42679e-08 -0.000718871)
(0.000592862 5.4991e-08 -0.000719486)
(0.000592853 5.57305e-08 -0.000720111)
(0.000592843 5.64869e-08 -0.000720747)
(0.000592834 5.72607e-08 -0.000721395)
(0.000592825 5.80526e-08 -0.000722055)
(0.000592815 5.8863e-08 -0.000722727)
(0.000592805 5.96926e-08 -0.000723411)
(0.000592795 6.0542e-08 -0.000724108)
(0.000592785 6.14119e-08 -0.000724818)
(0.000592775 6.2303e-08 -0.000725541)
(0.000592764 6.32159e-08 -0.000726279)
(0.000592754 6.41515e-08 -0.00072703)
(0.000612517 6.50395e-08 -3.47878e-11)
(0.000609183 -5.05686e-07 -0.000665554)
(0.000609289 -5.0925e-07 -0.000665666)
(0.000609397 -5.12864e-07 -0.00066578)
(0.000609506 -5.16529e-07 -0.000665895)
(0.000609616 -5.20248e-07 -0.000666011)
(0.000609728 -5.2402e-07 -0.00066613)
(0.000609842 -5.27848e-07 -0.00066625)
(0.000609958 -5.31731e-07 -0.000666372)
(0.000610075 -5.35672e-07 -0.000666496)
(0.000610194 -5.39672e-07 -0.000666621)
(0.000610315 -5.43732e-07 -0.000666748)
(0.000610437 -5.47854e-07 -0.000666878)
(0.000610561 -5.52038e-07 -0.000667009)
(0.000610688 -5.56287e-07 -0.000667142)
(0.000610816 -5.60602e-07 -0.000667277)
(0.000610946 -5.64984e-07 -0.000667414)
(0.000611078 -5.69435e-07 -0.000667553)
(0.000611213 -5.73956e-07 -0.000667695)
(0.000611349 -5.7855e-07 -0.000667839)
(0.000611488 -5.83218e-07 -0.000667984)
(0.000611629 -5.87962e-07 -0.000668133)
(0.000632147 -6.16027e-07 -2.02453e-11)
(0.000608609 -5.06326e-07 -0.000665079)
(0.000608711 -5.09902e-07 -0.000665189)
(0.000608814 -5.13528e-07 -0.0006653)
(0.000608919 -5.17207e-07 -0.000665413)
(0.000609025 -5.20939e-07 -0.000665528)
(0.000609133 -5.24726e-07 -0.000665644)
(0.000609243 -5.28567e-07 -0.000665762)
(0.000609354 -5.32466e-07 -0.000665882)
(0.000609466 -5.36422e-07 -0.000666004)
(0.000609581 -5.40437e-07 -0.000666127)
(0.000609697 -5.44513e-07 -0.000666252)
(0.000609815 -5.48651e-07 -0.000666379)
(0.000609934 -5.52853e-07 -0.000666508)
(0.000610056 -5.57119e-07 -0.000666639)
(0.000610179 -5.61452e-07 -0.000666772)
(0.000610304 -5.65852e-07 -0.000666907)
(0.000610431 -5.70322e-07 -0.000667044)
(0.000610561 -5.74864e-07 -0.000667183)
(0.000610692 -5.79478e-07 -0.000667325)
(0.000610825 -5.84167e-07 -0.000667469)
(0.000610961 -5.88932e-07 -0.000667615)
(0.000631436 -6.1841e-07 -1.89298e-11)
(0.000608036 -5.05809e-07 -0.000664451)
(0.000608134 -5.09376e-07 -0.000664557)
(0.000608233 -5.12995e-07 -0.000664663)
(0.000608334 -5.16665e-07 -0.000664772)
(0.000608436 -5.20389e-07 -0.000664882)
(0.00060854 -5.24166e-07 -0.000664994)
(0.000608645 -5.27998e-07 -0.000665107)
(0.000608751 -5.31887e-07 -0.000665222)
(0.00060886 -5.35834e-07 -0.000665338)
(0.000608969 -5.3984e-07 -0.000665456)
(0.000609081 -5.43906e-07 -0.000665576)
(0.000609194 -5.48033e-07 -0.000665698)
(0.000609309 -5.52224e-07 -0.000665822)
(0.000609425 -5.56479e-07 -0.000665948)
(0.000609544 -5.60801e-07 -0.000666075)
(0.000609664 -5.6519e-07 -0.000666205)
(0.000609786 -5.69648e-07 -0.000666336)
(0.00060991 -5.74177e-07 -0.00066647)
(0.000610036 -5.78779e-07 -0.000666605)
(0.000610164 -5.83455e-07 -0.000666743)
(0.000610294 -5.88207e-07 -0.000666883)
(0.000630738 -6.17632e-07 -1.84389e-11)
(0.000607463 -5.05405e-07 -0.000663827)
(0.000607557 -5.08967e-07 -0.000663928)
(0.000607653 -5.1258e-07 -0.000664031)
(0.000607749 -5.16245e-07 -0.000664135)
(0.000607847 -5.19962e-07 -0.00066424)
(0.000607946 -5.23733e-07 -0.000664347)
(0.000608047 -5.27559e-07 -0.000664455)
(0.000608149 -5.31442e-07 -0.000664565)
(0.000608253 -5.35382e-07 -0.000664677)
(0.000608359 -5.39381e-07 -0.00066479)
(0.000608465 -5.4344e-07 -0.000664905)
(0.000608574 -5.4756e-07 -0.000665022)
(0.000608684 -5.51744e-07 -0.000665141)
(0.000608796 -5.55992e-07 -0.000665261)
(0.000608909 -5.60306e-07 -0.000665383)
(0.000609025 -5.64687e-07 -0.000665507)
(0.000609142 -5.69138e-07 -0.000665633)
(0.000609261 -5.73659e-07 -0.000665761)
(0.000609381 -5.78252e-07 -0.000665892)
(0.000609504 -5.8292e-07 -0.000666024)
(0.000609629 -5.87664e-07 -0.000666158)
(0.00063004 -6.17052e-07 -1.7853e-11)
(0.000606892 -5.05001e-07 -0.000663204)
(0.000606981 -5.08558e-07 -0.0006633)
(0.000607073 -5.12165e-07 -0.000663398)
(0.000607165 -5.15824e-07 -0.000663498)
(0.000607259 -5.19535e-07 -0.000663599)
(0.000607354 -5.233e-07 -0.000663701)
(0.00060745 -5.2712e-07 -0.000663805)
(0.000607548 -5.30996e-07 -0.00066391)
(0.000607647 -5.34929e-07 -0.000664017)
(0.000607748 -5.38922e-07 -0.000664125)
(0.00060785 -5.42974e-07 -0.000664235)
(0.000607954 -5.47088e-07 -0.000664347)
(0.00060806 -5.51264e-07 -0.00066446)
(0.000608167 -5.55505e-07 -0.000664575)
(0.000608275 -5.59811e-07 -0.000664692)
(0.000608386 -5.64185e-07 -0.000664811)
(0.000608498 -5.68627e-07 -0.000664931)
(0.000608612 -5.7314e-07 -0.000665054)
(0.000608727 -5.77726e-07 -0.000665178)
(0.000608845 -5.82385e-07 -0.000665305)
(0.000608964 -5.8712e-07 -0.000665433)
(0.000629343 -6.16473e-07 -1.72681e-11)
(0.00060632 -5.04598e-07 -0.000662581)
(0.000606406 -5.08149e-07 -0.000662673)
(0.000606493 -5.1175e-07 -0.000662766)
(0.000606581 -5.15403e-07 -0.000662861)
(0.000606671 -5.19108e-07 -0.000662958)
(0.000606762 -5.22867e-07 -0.000663055)
(0.000606854 -5.26681e-07 -0.000663154)
(0.000606947 -5.3055e-07 -0.000663255)
(0.000607042 -5.34477e-07 -0.000663357)
(0.000607138 -5.38463e-07 -0.00066346)
(0.000607236 -5.42508e-07 -0.000663565)
(0.000607335 -5.46615e-07 -0.000663672)
(0.000607436 -5.50784e-07 -0.00066378)
(0.000607538 -5.55018e-07 -0.00066389)
(0.000607642 -5.59317e-07 -0.000664002)
(0.000607747 -5.63683e-07 -0.000664115)
(0.000607854 -5.68117e-07 -0.00066423)
(0.000607963 -5.72622e-07 -0.000664347)
(0.000608073 -5.77199e-07 -0.000664466)
(0.000608186 -5.8185e-07 -0.000664586)
(0.0006083 -5.86577e-07 -0.000664709)
(0.000628647 -6.15894e-07 -1.66832e-11)
(0.000605749 -5.04195e-07 -0.000661958)
(0.000605831 -5.0774e-07 -0.000662046)
(0.000605914 -5.11336e-07 -0.000662135)
(0.000605998 -5.14983e-07 -0.000662226)
(0.000606084 -5.18682e-07 -0.000662317)
(0.00060617 -5.22435e-07 -0.00066241)
(0.000606258 -5.26242e-07 -0.000662505)
(0.000606347 -5.30105e-07 -0.0006626)
(0.000606437 -5.34026e-07 -0.000662697)
(0.000606529 -5.38005e-07 -0.000662796)
(0.000606622 -5.42043e-07 -0.000662896)
(0.000606717 -5.46143e-07 -0.000662998)
(0.000606813 -5.50305e-07 -0.000663101)
(0.00060691 -5.54531e-07 -0.000663205)
(0.000607009 -5.58822e-07 -0.000663312)
(0.00060711 -5.63181e-07 -0.00066342)
(0.000607212 -5.67608e-07 -0.000663529)
(0.000607315 -5.72105e-07 -0.00066364)
(0.00060742 -5.76674e-07 -0.000663754)
(0.000607527 -5.81316e-07 -0.000663868)
(0.000607636 -5.86034e-07 -0.000663985)
(0.000627951 -6.15316e-07 -1.60984e-11)
(0.000605179 -5.03792e-07 -0.000661336)
(0.000605257 -5.07332e-07 -0.00066142)
(0.000605335 -5.10922e-07 -0.000661504)
(0.000605415 -5.14563e-07 -0.00066159)
(0.000605497 -5.18256e-07 -0.000661677)
(0.000605579 -5.22002e-07 -0.000661766)
(0.000605662 -5.25804e-07 -0.000661855)
(0.000605747 -5.29661e-07 -0.000661946)
(0.000605833 -5.33574e-07 -0.000662039)
(0.00060592 -5.37547e-07 -0.000662132)
(0.000606009 -5.41578e-07 -0.000662227)
(0.000606099 -5.45671e-07 -0.000662324)
(0.00060619 -5.49826e-07 -0.000662422)
(0.000606283 -5.54045e-07 -0.000662521)
(0.000606377 -5.58329e-07 -0.000662622)
(0.000606472 -5.62679e-07 -0.000662725)
(0.000606569 -5.67098e-07 -0.000662829)
(0.000606668 -5.71587e-07 -0.000662935)
(0.000606768 -5.76148e-07 -0.000663042)
(0.00060687 -5.80782e-07 -0.000663151)
(0.000606973 -5.85491e-07 -0.000663262)
(0.000627256 -6.14738e-07 -1.5514e-11)
(0.000604609 -5.03404e-07 -0.000660714)
(0.000604682 -5.06938e-07 -0.000660794)
(0.000604757 -5.10522e-07 -0.000660874)
(0.000604833 -5.14157e-07 -0.000660955)
(0.00060491 -5.17845e-07 -0.000661038)
(0.000604988 -5.21585e-07 -0.000661122)
(0.000605067 -5.2538e-07 -0.000661207)
(0.000605148 -5.29231e-07 -0.000661293)
(0.000605229 -5.33138e-07 -0.00066138)
(0.000605312 -5.37103e-07 -0.000661469)
(0.000605396 -5.41128e-07 -0.000661559)
(0.000605481 -5.45214e-07 -0.00066165)
(0.000605568 -5.49362e-07 -0.000661743)
(0.000605656 -5.53573e-07 -0.000661838)
(0.000605745 -5.5785e-07 -0.000661933)
(0.000605835 -5.62193e-07 -0.00066203)
(0.000605927 -5.66604e-07 -0.000662129)
(0.000606021 -5.71085e-07 -0.000662229)
(0.000606116 -5.75638e-07 -0.000662331)
(0.000606212 -5.80263e-07 -0.000662435)
(0.00060631 -5.84964e-07 -0.00066254)
(0.000626561 -6.14174e-07 -1.49175e-11)
(0.00060403 -5.03523e-07 -0.000660085)
(0.0006041 -5.07055e-07 -0.000660159)
(0.000604171 -5.10637e-07 -0.000660235)
(0.000604242 -5.14269e-07 -0.000660312)
(0.000604315 -5.17954e-07 -0.00066039)
(0.000604389 -5.21692e-07 -0.000660469)
(0.000604464 -5.25484e-07 -0.000660549)
(0.00060454 -5.29332e-07 -0.000660631)
(0.000604617 -5.33237e-07 -0.000660713)
(0.000604695 -5.372e-07 -0.000660797)
(0.000604774 -5.41222e-07 -0.000660882)
(0.000604855 -5.45304e-07 -0.000660968)
(0.000604937 -5.49449e-07 -0.000661056)
(0.00060502 -5.53657e-07 -0.000661145)
(0.000605104 -5.5793e-07 -0.000661235)
(0.00060519 -5.6227e-07 -0.000661327)
(0.000605277 -5.66678e-07 -0.00066142)
(0.000605365 -5.71155e-07 -0.000661515)
(0.000605455 -5.75704e-07 -0.000661611)
(0.000605546 -5.80325e-07 -0.000661709)
(0.000605638 -5.85022e-07 -0.000661808)
(0.000625858 -6.14132e-07 -1.208e-11)
(0.000603452 -5.03642e-07 -0.000659455)
(0.000603518 -5.07172e-07 -0.000659525)
(0.000603585 -5.10752e-07 -0.000659597)
(0.000603652 -5.14383e-07 -0.000659669)
(0.000603721 -5.18065e-07 -0.000659742)
(0.00060379 -5.21801e-07 -0.000659817)
(0.000603861 -5.25591e-07 -0.000659892)
(0.000603932 -5.29436e-07 -0.000659969)
(0.000604005 -5.33338e-07 -0.000660047)
(0.000604078 -5.37298e-07 -0.000660126)
(0.000604153 -5.41318e-07 -0.000660206)
(0.000604229 -5.45398e-07 -0.000660287)
(0.000604306 -5.49539e-07 -0.000660369)
(0.000604384 -5.53745e-07 -0.000660453)
(0.000604464 -5.58015e-07 -0.000660538)
(0.000604544 -5.62351e-07 -0.000660624)
(0.000604626 -5.66755e-07 -0.000660712)
(0.000604709 -5.71229e-07 -0.000660801)
(0.000604794 -5.75774e-07 -0.000660892)
(0.00060488 -5.80392e-07 -0.000660983)
(0.000604967 -5.85085e-07 -0.000661077)
(0.000625156 -6.14096e-07 -1.14891e-11)
(0.000602875 -5.03761e-07 -0.000658826)
(0.000602936 -5.07289e-07 -0.000658892)
(0.000602999 -5.10867e-07 -0.000658959)
(0.000603062 -5.14495e-07 -0.000659027)
(0.000603127 -5.18176e-07 -0.000659096)
(0.000603192 -5.21909e-07 -0.000659165)
(0.000603258 -5.25696e-07 -0.000659236)
(0.000603325 -5.29539e-07 -0.000659308)
(0.000603393 -5.33439e-07 -0.000659381)
(0.000603462 -5.37396e-07 -0.000659455)
(0.000603532 -5.41413e-07 -0.00065953)
(0.000603604 -5.4549e-07 -0.000659606)
(0.000603676 -5.49629e-07 -0.000659683)
(0.000603749 -5.53831e-07 -0.000659762)
(0.000603824 -5.58098e-07 -0.000659841)
(0.000603899 -5.62431e-07 -0.000659922)
(0.000603976 -5.66832e-07 -0.000660004)
(0.000604054 -5.71302e-07 -0.000660088)
(0.000604134 -5.75844e-07 -0.000660173)
(0.000604214 -5.80458e-07 -0.000660259)
(0.000604296 -5.85147e-07 -0.000660346)
(0.000624454 -6.14059e-07 -1.11968e-11)
(0.000602298 -5.03879e-07 -0.000658198)
(0.000602355 -5.07405e-07 -0.000658259)
(0.000602414 -5.1098e-07 -0.000658322)
(0.000602473 -5.14607e-07 -0.000658385)
(0.000602533 -5.18285e-07 -0.000658449)
(0.000602594 -5.22016e-07 -0.000658514)
(0.000602656 -5.25801e-07 -0.00065858)
(0.000602719 -5.29641e-07 -0.000658647)
(0.000602782 -5.33538e-07 -0.000658715)
(0.000602847 -5.37493e-07 -0.000658784)
(0.000602912 -5.41507e-07 -0.000658854)
(0.000602979 -5.45581e-07 -0.000658925)
(0.000603046 -5.49717e-07 -0.000658998)
(0.000603115 -5.53916e-07 -0.000659071)
(0.000603185 -5.5818e-07 -0.000659145)
(0.000603255 -5.6251e-07 -0.000659221)
(0.000603327 -5.66907e-07 -0.000659297)
(0.0006034 -5.71374e-07 -0.000659375)
(0.000603474 -5.75912e-07 -0.000659454)
(0.000603549 -5.80522e-07 -0.000659535)
(0.000603626 -5.85207e-07 -0.000659617)
(0.000623754 -6.1402e-07 -1.09056e-11)
(0.000601721 -5.03996e-07 -0.00065757)
(0.000601775 -5.0752e-07 -0.000657627)
(0.000601829 -5.11093e-07 -0.000657685)
(0.000601884 -5.14717e-07 -0.000657744)
(0.00060194 -5.18393e-07 -0.000657804)
(0.000601997 -5.22122e-07 -0.000657864)
(0.000602054 -5.25904e-07 -0.000657925)
(0.000602113 -5.29742e-07 -0.000657988)
(0.000602172 -5.33637e-07 -0.000658051)
(0.000602232 -5.37589e-07 -0.000658115)
(0.000602293 -5.416e-07 -0.00065818)
(0.000602355 -5.45671e-07 -0.000658246)
(0.000602418 -5.49804e-07 -0.000658313)
(0.000602481 -5.54e-07 -0.000658381)
(0.000602546 -5.5826e-07 -0.00065845)
(0.000602612 -5.62587e-07 -0.00065852)
(0.000602679 -5.66981e-07 -0.000658591)
(0.000602746 -5.71445e-07 -0.000658664)
(0.000602815 -5.75979e-07 -0.000658737)
(0.000602885 -5.80585e-07 -0.000658812)
(0.000602956 -5.85266e-07 -0.000658888)
(0.000623053 -6.1398e-07 -1.06152e-11)
(0.000601145 -5.04112e-07 -0.000656943)
(0.000601195 -5.07634e-07 -0.000656996)
(0.000601245 -5.11205e-07 -0.000657049)
(0.000601296 -5.14827e-07 -0.000657103)
(0.000601348 -5.185e-07 -0.000657158)
(0.0006014 -5.22227e-07 -0.000657214)
(0.000601453 -5.26007e-07 -0.000657271)
(0.000601507 -5.29842e-07 -0.000657328)
(0.000601562 -5.33734e-07 -0.000657387)
(0.000601617 -5.37683e-07 -0.000657446)
(0.000601674 -5.41691e-07 -0.000657506)
(0.000601731 -5.4576e-07 -0.000657567)
(0.000601789 -5.4989e-07 -0.000657629)
(0.000601848 -5.54082e-07 -0.000657691)
(0.000601908 -5.5834e-07 -0.000657755)
(0.000601969 -5.62663e-07 -0.00065782)
(0.000602031 -5.67054e-07 -0.000657886)
(0.000602093 -5.71514e-07 -0.000657952)
(0.000602157 -5.76044e-07 -0.00065802)
(0.000602222 -5.80647e-07 -0.000658089)
(0.000602287 -5.85324e-07 -0.000658159)
(0.000622354 -6.13939e-07 -1.03255e-11)
(0.00060057 -5.04227e-07 -0.000656316)
(0.000600615 -5.07747e-07 -0.000656365)
(0.000600661 -5.11316e-07 -0.000656414)
(0.000600708 -5.14935e-07 -0.000656463)
(0.000600756 -5.18606e-07 -0.000656514)
(0.000600804 -5.2233e-07 -0.000656565)
(0.000600853 -5.26108e-07 -0.000656617)
(0.000600902 -5.29941e-07 -0.00065667)
(0.000600953 -5.3383e-07 -0.000656723)
(0.000601004 -5.37776e-07 -0.000656777)
(0.000601055 -5.41782e-07 -0.000656832)
(0.000601108 -5.45847e-07 -0.000656888)
(0.000601161 -5.49974e-07 -0.000656945)
(0.000601216 -5.54164e-07 -0.000657003)
(0.000601271 -5.58418e-07 -0.000657061)
(0.000601326 -5.62738e-07 -0.00065712)
(0.000601383 -5.67125e-07 -0.000657181)
(0.000601441 -5.71581e-07 -0.000657242)
(0.000601499 -5.76108e-07 -0.000657304)
(0.000601559 -5.80707e-07 -0.000657367)
(0.000601619 -5.85381e-07 -0.000657432)
(0.000621655 -6.13896e-07 -1.00367e-11)
(0.000599995 -5.04341e-07 -0.00065569)
(0.000600036 -5.07858e-07 -0.000655734)
(0.000600078 -5.11425e-07 -0.000655779)
(0.000600121 -5.15042e-07 -0.000655824)
(0.000600164 -5.18711e-07 -0.00065587)
(0.000600208 -5.22433e-07 -0.000655916)
(0.000600253 -5.26208e-07 -0.000655964)
(0.000600298 -5.30038e-07 -0.000656011)
(0.000600344 -5.33924e-07 -0.00065606)
(0.00060039 -5.37868e-07 -0.000656109)
(0.000600437 -5.41871e-07 -0.00065616)
(0.000600485 -5.45933e-07 -0.00065621)
(0.000600534 -5.50057e-07 -0.000656262)
(0.000600584 -5.54244e-07 -0.000656314)
(0.000600634 -5.58495e-07 -0.000656368)
(0.000600685 -5.62811e-07 -0.000656422)
(0.000600736 -5.67195e-07 -0.000656476)
(0.000600789 -5.71648e-07 -0.000656532)
(0.000600842 -5.76171e-07 -0.000656589)
(0.000600897 -5.80766e-07 -0.000656646)
(0.000600952 -5.85435e-07 -0.000656705)
(0.000620957 -6.13851e-07 -9.74865e-12)
(0.00059942 -5.04453e-07 -0.000655064)
(0.000599457 -5.07968e-07 -0.000655104)
(0.000599495 -5.11533e-07 -0.000655144)
(0.000599534 -5.15148e-07 -0.000655185)
(0.000599573 -5.18815e-07 -0.000655226)
(0.000599613 -5.22534e-07 -0.000655268)
(0.000599653 -5.26306e-07 -0.000655311)
(0.000599694 -5.30134e-07 -0.000655354)
(0.000599735 -5.34018e-07 -0.000655398)
(0.000599777 -5.37959e-07 -0.000655442)
(0.00059982 -5.41958e-07 -0.000655487)
(0.000599863 -5.46018e-07 -0.000655533)
(0.000599907 -5.50139e-07 -0.00065558)
(0.000599952 -5.54322e-07 -0.000655627)
(0.000599997 -5.5857e-07 -0.000655675)
(0.000600043 -5.62883e-07 -0.000655723)
(0.00060009 -5.67263e-07 -0.000655773)
(0.000600138 -5.71712e-07 -0.000655823)
(0.000600186 -5.76232e-07 -0.000655874)
(0.000600235 -5.80823e-07 -0.000655926)
(0.000600285 -5.85488e-07 -0.000655978)
(0.00062026 -6.13805e-07 -9.46137e-12)
(0.000598846 -5.04564e-07 -0.000654439)
(0.000598879 -5.08078e-07 -0.000654474)
(0.000598913 -5.1164e-07 -0.00065451)
(0.000598948 -5.15253e-07 -0.000654547)
(0.000598983 -5.18917e-07 -0.000654583)
(0.000599018 -5.22633e-07 -0.000654621)
(0.000599054 -5.26403e-07 -0.000654659)
(0.000599091 -5.30228e-07 -0.000654697)
(0.000599128 -5.34109e-07 -0.000654736)
(0.000599165 -5.38048e-07 -0.000654776)
(0.000599203 -5.42044e-07 -0.000654816)
(0.000599242 -5.46101e-07 -0.000654857)
(0.000599281 -5.50219e-07 -0.000654898)
(0.000599321 -5.54399e-07 -0.00065494)
(0.000599362 -5.58643e-07 -0.000654983)
(0.000599403 -5.62953e-07 -0.000655026)
(0.000599445 -5.6733e-07 -0.00065507)
(0.000599487 -5.71775e-07 -0.000655115)
(0.00059953 -5.76291e-07 -0.00065516)
(0.000599574 -5.80878e-07 -0.000655206)
(0.000599618 -5.85539e-07 -0.000655253)
(0.000619563 -6.13757e-07 -9.17488e-12)
(0.000598272 -5.04674e-07 -0.000653815)
(0.000598302 -5.08185e-07 -0.000653845)
(0.000598332 -5.11745e-07 -0.000653877)
(0.000598362 -5.15356e-07 -0.000653909)
(0.000598393 -5.19017e-07 -0.000653941)
(0.000598424 -5.22731e-07 -0.000653974)
(0.000598456 -5.26499e-07 -0.000654007)
(0.000598488 -5.30321e-07 -0.000654041)
(0.00059852 -5.342e-07 -0.000654075)
(0.000598553 -5.38135e-07 -0.00065411)
(0.000598587 -5.42129e-07 -0.000654145)
(0.000598621 -5.46182e-07 -0.000654181)
(0.000598656 -5.50297e-07 -0.000654217)
(0.000598691 -5.54474e-07 -0.000654254)
(0.000598727 -5.58715e-07 -0.000654291)
(0.000598763 -5.63021e-07 -0.000654329)
(0.0005988 -5.67395e-07 -0.000654368)
(0.000598837 -5.71836e-07 -0.000654407)
(0.000598875 -5.76348e-07 -0.000654447)
(0.000598913 -5.80932e-07 -0.000654487)
(0.000598953 -5.85589e-07 -0.000654528)
(0.000618867 -6.13707e-07 -8.88915e-12)
(0.000597699 -5.04783e-07 -0.00065319)
(0.000597724 -5.08291e-07 -0.000653217)
(0.00059775 -5.11849e-07 -0.000653244)
(0.000597777 -5.15457e-07 -0.000653271)
(0.000597803 -5.19116e-07 -0.000653299)
(0.00059783 -5.22828e-07 -0.000653327)
(0.000597858 -5.26593e-07 -0.000653356)
(0.000597885 -5.30413e-07 -0.000653385)
(0.000597914 -5.34288e-07 -0.000653414)
(0.000597942 -5.38221e-07 -0.000653444)
(0.000597971 -5.42212e-07 -0.000653474)
(0.000598001 -5.46262e-07 -0.000653505)
(0.000598031 -5.50374e-07 -0.000653536)
(0.000598061 -5.54547e-07 -0.000653568)
(0.000598092 -5.58785e-07 -0.0006536)
(0.000598123 -5.63088e-07 -0.000653633)
(0.000598155 -5.67458e-07 -0.000653666)
(0.000598188 -5.71896e-07 -0.0006537)
(0.00059822 -5.76404e-07 -0.000653734)
(0.000598254 -5.80983e-07 -0.000653769)
(0.000598288 -5.85636e-07 -0.000653804)
(0.000618171 -6.13655e-07 -8.60421e-12)
(0.000597126 -5.04889e-07 -0.000652567)
(0.000597148 -5.08396e-07 -0.000652589)
(0.00059717 -5.11952e-07 -0.000652612)
(0.000597192 -5.15557e-07 -0.000652635)
(0.000597214 -5.19214e-07 -0.000652658)
(0.000597237 -5.22923e-07 -0.000652681)
(0.00059726 -5.26686e-07 -0.000652705)
(0.000597284 -5.30503e-07 -0.00065273)
(0.000597307 -5.34375e-07 -0.000652754)
(0.000597332 -5.38305e-07 -0.000652779)
(0.000597356 -5.42293e-07 -0.000652805)
(0.000597381 -5.4634e-07 -0.00065283)
(0.000597406 -5.50449e-07 -0.000652857)
(0.000597432 -5.54619e-07 -0.000652883)
(0.000597458 -5.58853e-07 -0.00065291)
(0.000597485 -5.63153e-07 -0.000652937)
(0.000597511 -5.67519e-07 -0.000652965)
(0.000597539 -5.71953e-07 -0.000652993)
(0.000597566 -5.76457e-07 -0.000653022)
(0.000597595 -5.81033e-07 -0.000653051)
(0.000597623 -5.85682e-07 -0.000653081)
(0.000617477 -6.13601e-07 -8.32006e-12)
(0.000596554 -5.05023e-07 -0.000651944)
(0.000596572 -5.08528e-07 -0.000651962)
(0.00059659 -5.12081e-07 -0.00065198)
(0.000596608 -5.15685e-07 -0.000651999)
(0.000596626 -5.1934e-07 -0.000652018)
(0.000596645 -5.23047e-07 -0.000652037)
(0.000596664 -5.26807e-07 -0.000652056)
(0.000596683 -5.30622e-07 -0.000652075)
(0.000596702 -5.34492e-07 -0.000652095)
(0.000596722 -5.3842e-07 -0.000652115)
(0.000596742 -5.42405e-07 -0.000652136)
(0.000596762 -5.4645e-07 -0.000652157)
(0.000596783 -5.50555e-07 -0.000652178)
(0.000596804 -5.54723e-07 -0.000652199)
(0.000596825 -5.58954e-07 -0.000652221)
(0.000596847 -5.63251e-07 -0.000652243)
(0.000596869 -5.67614e-07 -0.000652265)
(0.000596891 -5.72045e-07 -0.000652288)
(0.000596914 -5.76546e-07 -0.000652311)
(0.000596937 -5.81118e-07 -0.000652335)
(0.00059696 -5.85763e-07 -0.000652359)
(0.000616783 -6.13582e-07 -8.01118e-12)
(0.000596117 -5.13277e-07 -0.000651456)
(0.000596132 -5.16838e-07 -0.00065147)
(0.000596147 -5.20448e-07 -0.000651485)
(0.000596162 -5.24109e-07 -0.0006515)
(0.000596177 -5.27821e-07 -0.000651515)
(0.000596192 -5.31587e-07 -0.000651531)
(0.000596208 -5.35407e-07 -0.000651546)
(0.000596224 -5.39282e-07 -0.000651562)
(0.00059624 -5.43214e-07 -0.000651578)
(0.000596256 -5.47203e-07 -0.000651595)
(0.000596273 -5.51252e-07 -0.000651611)
(0.00059629 -5.55361e-07 -0.000651628)
(0.000596307 -5.59531e-07 -0.000651645)
(0.000596324 -5.63765e-07 -0.000651663)
(0.000596342 -5.68063e-07 -0.00065168)
(0.00059636 -5.72427e-07 -0.000651698)
(0.000596378 -5.76859e-07 -0.000651716)
(0.000596396 -5.8136e-07 -0.000651735)
(0.000596415 -5.85932e-07 -0.000651754)
(0.000596434 -5.90576e-07 -0.000651773)
(0.000596454 -5.95295e-07 -0.000651792)
(0.00061623 -6.22076e-07 -4.69203e-11)
)
;

boundaryField
{
    inlet
    {
        type            calculated;
        value           uniform (0 0 0);
    }
    outlet2
    {
        type            calculated;
        value           uniform (0 0 0);
    }
    outlet1
    {
        type            calculated;
        value           uniform (0 0 0);
    }
    wall
    {
        type            calculated;
        value           uniform (0 0 0);
    }
    symmetryBottom
    {
        type            symmetry;
    }
    symmetryZ0
    {
        type            symmetry;
    }
    symmetryZ05
    {
        type            symmetry;
    }
}


// ************************************************************************* //
