/*--------------------------------*- C++ -*----------------------------------*\
| =========                 |                                                 |
| \\      /  F ield         | OpenFOAM: The Open Source CFD Toolbox           |
|  \\    /   O peration     | Version:  2412                                  |
|   \\  /    A nd           | Website:  www.openfoam.com                      |
|    \\/     M anipulation  |                                                 |
\*---------------------------------------------------------------------------*/
FoamFile
{
    version     2.0;
    format      ascii;
    arch        "LSB;label=32;scalar=64";
    class       volVectorField;
    location    "1.16035e-06";
    object      rhoU;
}
// * * * * * * * * * * * * * * * * * * * * * * * * * * * * * * * * * * * * * //

dimensions      [0 0 0 0 0 0 0];

internalField   nonuniform List<vector> 
625
(
(0.0757028 -4.10437e-07 -9.32544e-07)
(0.0615478 -5.8507e-07 -9.7028e-07)
(0.0615478 -5.85955e-07 1.14529e-08)
(0.0757052 -6.62335e-05 -9.3249e-07)
(0.0615499 -5.75268e-05 -9.70236e-07)
(0.0615499 -5.75278e-05 5.57727e-11)
(0.0757029 -6.60002e-05 -9.32518e-07)
(0.0615478 -5.73169e-05 -9.70266e-07)
(0.0615479 -5.73177e-05 2.2011e-10)
(0.0757029 -6.60012e-05 -9.32518e-07)
(0.0615479 -5.73178e-05 -9.70266e-07)
(0.0615479 -5.73186e-05 2.19466e-10)
(0.0757029 -6.60012e-05 -9.32518e-07)
(0.0615479 -5.73178e-05 -9.70266e-07)
(0.0615479 -5.73186e-05 2.19468e-10)
(0.0757029 -6.60012e-05 -9.32518e-07)
(0.0615479 -5.73178e-05 -9.70266e-07)
(0.0615479 -5.73186e-05 2.19468e-10)
(0.0757029 -6.60012e-05 -9.32518e-07)
(0.0615479 -5.73178e-05 -9.70266e-07)
(0.0615479 -5.73186e-05 2.19468e-10)
(0.0757029 -6.60012e-05 -9.32518e-07)
(0.0615479 -5.73178e-05 -9.70266e-07)
(0.0615479 -5.73186e-05 2.19468e-10)
(0.0757029 -6.60012e-05 -9.32518e-07)
(0.0615479 -5.73178e-05 -9.70266e-07)
(0.0615479 -5.73186e-05 2.19468e-10)
(0.0757029 -6.60012e-05 -9.32518e-07)
(0.0615479 -5.73178e-05 -9.70266e-07)
(0.0615479 -5.73186e-05 2.19468e-10)
(0.0757029 -6.60012e-05 -9.32518e-07)
(0.0615479 -5.73178e-05 -9.70266e-07)
(0.0615479 -5.73186e-05 2.19468e-10)
(0.0757029 -6.60012e-05 -9.32518e-07)
(0.0615479 -5.73178e-05 -9.70266e-07)
(0.0615479 -5.73186e-05 2.19468e-10)
(0.0757029 -6.60012e-05 -9.32518e-07)
(0.0615479 -5.73178e-05 -9.70266e-07)
(0.0615479 -5.73186e-05 2.19468e-10)
(0.0757029 -6.60012e-05 -9.32518e-07)
(0.0615479 -5.73178e-05 -9.70266e-07)
(0.0615479 -5.73186e-05 2.19468e-10)
(0.0757029 -6.60012e-05 -9.32518e-07)
(0.0615479 -5.73178e-05 -9.70266e-07)
(0.0615479 -5.73186e-05 2.19468e-10)
(0.0757029 -6.60012e-05 -9.32518e-07)
(0.0615479 -5.73178e-05 -9.70266e-07)
(0.0615479 -5.73186e-05 2.19468e-10)
(0.0757029 -6.60012e-05 -9.32518e-07)
(0.0615479 -5.73178e-05 -9.70266e-07)
(0.0615479 -5.73186e-05 2.19468e-10)
(0.0757029 -6.60012e-05 -9.32518e-07)
(0.0615479 -5.73178e-05 -9.70266e-07)
(0.0615479 -5.73186e-05 2.19468e-10)
(0.0757029 -6.60012e-05 -9.32518e-07)
(0.0615479 -5.73178e-05 -9.70266e-07)
(0.0615479 -5.73186e-05 2.19468e-10)
(0.0757029 -6.60012e-05 -9.32518e-07)
(0.0615479 -5.73178e-05 -9.70266e-07)
(0.0615479 -5.73186e-05 2.19468e-10)
(0.0757029 -6.60012e-05 -9.32518e-07)
(0.0615479 -5.73178e-05 -9.70266e-07)
(0.0615479 -5.73186e-05 2.19468e-10)
(0.0757029 -6.60012e-05 -9.32518e-07)
(0.0615479 -5.73178e-05 -9.70266e-07)
(0.0615479 -5.73186e-05 2.1946e-10)
(0.0757029 -6.60012e-05 -9.32518e-07)
(0.0615479 -5.73178e-05 -9.70266e-07)
(0.0615479 -5.73186e-05 2.26102e-10)
(0.0757029 -6.60012e-05 -9.32519e-07)
(0.0615479 -5.73188e-05 -9.70266e-07)
(0.0615479 -5.7325e-05 -6.85785e-09)
(0.0757037 -6.60452e-05 -9.32951e-07)
(0.0615449 -5.71421e-05 -9.70695e-07)
(0.061545 -5.71483e-05 -9.74209e-07)
(0.0635084 8.77611e-06 -1.11783e-06)
(0.0635074 8.91538e-06 -1.11874e-06)
(0.0635063 9.05793e-06 -1.11966e-06)
(0.0635052 9.20387e-06 -1.1206e-06)
(0.0635041 9.3533e-06 -1.12155e-06)
(0.0635029 9.50635e-06 -1.12252e-06)
(0.0635018 9.66313e-06 -1.1235e-06)
(0.0635007 9.82375e-06 -1.1245e-06)
(0.0634995 9.98835e-06 -1.12551e-06)
(0.0634984 1.0157e-05 -1.12654e-06)
(0.0634972 1.033e-05 -1.12759e-06)
(0.063496 1.05073e-05 -1.12866e-06)
(0.0634948 1.06892e-05 -1.12974e-06)
(0.0634936 1.08757e-05 -1.13085e-06)
(0.0634923 1.10671e-05 -1.13197e-06)
(0.0634911 1.12635e-05 -1.13311e-06)
(0.0634899 1.14651e-05 -1.13427e-06)
(0.0634886 1.16721e-05 -1.13545e-06)
(0.0634873 1.18846e-05 -1.13665e-06)
(0.063486 1.2103e-05 -1.13787e-06)
(0.0634847 1.23272e-05 -1.13912e-06)
(0.0635608 1.23309e-05 -1.88321e-08)
(0.0652904 -5.62713e-05 -1.02379e-06)
(0.0653017 -5.6628e-05 -1.02396e-06)
(0.0653131 -5.6989e-05 -1.02413e-06)
(0.0653247 -5.73545e-05 -1.0243e-06)
(0.0653365 -5.77246e-05 -1.02447e-06)
(0.0653485 -5.80992e-05 -1.02465e-06)
(0.0653606 -5.84785e-05 -1.02483e-06)
(0.065373 -5.88626e-05 -1.02501e-06)
(0.0653855 -5.92516e-05 -1.0252e-06)
(0.0653982 -5.96455e-05 -1.02539e-06)
(0.065411 -6.00444e-05 -1.02558e-06)
(0.0654241 -6.04485e-05 -1.02577e-06)
(0.0654374 -6.08578e-05 -1.02597e-06)
(0.0654509 -6.12723e-05 -1.02617e-06)
(0.0654646 -6.16923e-05 -1.02637e-06)
(0.0654786 -6.21178e-05 -1.02657e-06)
(0.0654927 -6.25488e-05 -1.02678e-06)
(0.0655071 -6.29856e-05 -1.02699e-06)
(0.0655217 -6.34281e-05 -1.02721e-06)
(0.0655365 -6.38766e-05 -1.02743e-06)
(0.0655516 -6.43311e-05 -1.02765e-06)
(0.0656302 -6.44066e-05 -4.33983e-09)
(0.0651942 -6.09617e-05 -1.02287e-06)
(0.0652046 -6.13924e-05 -1.02303e-06)
(0.0652152 -6.18293e-05 -1.0232e-06)
(0.0652259 -6.22725e-05 -1.02336e-06)
(0.0652368 -6.27221e-05 -1.02353e-06)
(0.0652478 -6.31782e-05 -1.0237e-06)
(0.065259 -6.3641e-05 -1.02387e-06)
(0.0652703 -6.41106e-05 -1.02404e-06)
(0.0652819 -6.45873e-05 -1.02422e-06)
(0.0652935 -6.5071e-05 -1.0244e-06)
(0.0653054 -6.55621e-05 -1.02458e-06)
(0.0653174 -6.60607e-05 -1.02477e-06)
(0.0653297 -6.65669e-05 -1.02496e-06)
(0.0653421 -6.7081e-05 -1.02515e-06)
(0.0653547 -6.76031e-05 -1.02534e-06)
(0.0653675 -6.81333e-05 -1.02554e-06)
(0.0653805 -6.8672e-05 -1.02574e-06)
(0.0653937 -6.92193e-05 -1.02594e-06)
(0.0654071 -6.97753e-05 -1.02615e-06)
(0.0654207 -7.03404e-05 -1.02636e-06)
(0.0654346 -7.09148e-05 -1.02657e-06)
(0.065513 -7.09948e-05 -2.52791e-09)
(0.0651261 -6.08437e-05 -1.02202e-06)
(0.065136 -6.12722e-05 -1.02218e-06)
(0.0651461 -6.17069e-05 -1.02233e-06)
(0.0651563 -6.21478e-05 -1.02249e-06)
(0.0651667 -6.2595e-05 -1.02265e-06)
(0.0651772 -6.30487e-05 -1.02281e-06)
(0.0651879 -6.3509e-05 -1.02298e-06)
(0.0651987 -6.39761e-05 -1.02315e-06)
(0.0652097 -6.44501e-05 -1.02332e-06)
(0.0652209 -6.49311e-05 -1.02349e-06)
(0.0652322 -6.54194e-05 -1.02367e-06)
(0.0652437 -6.59152e-05 -1.02385e-06)
(0.0652553 -6.64184e-05 -1.02403e-06)
(0.0652671 -6.69295e-05 -1.02421e-06)
(0.0652792 -6.74484e-05 -1.0244e-06)
(0.0652914 -6.79754e-05 -1.02459e-06)
(0.0653038 -6.85108e-05 -1.02478e-06)
(0.0653164 -6.90546e-05 -1.02498e-06)
(0.0653292 -6.96072e-05 -1.02517e-06)
(0.0653422 -7.01687e-05 -1.02538e-06)
(0.0653554 -7.07393e-05 -1.02558e-06)
(0.0654337 -7.0819e-05 -2.41199e-09)
(0.065058 -6.07897e-05 -1.02117e-06)
(0.0650675 -6.12176e-05 -1.02132e-06)
(0.0650771 -6.16515e-05 -1.02147e-06)
(0.0650868 -6.20915e-05 -1.02162e-06)
(0.0650967 -6.2538e-05 -1.02177e-06)
(0.0651067 -6.29908e-05 -1.02193e-06)
(0.0651169 -6.34503e-05 -1.02209e-06)
(0.0651272 -6.39166e-05 -1.02225e-06)
(0.0651376 -6.43897e-05 -1.02242e-06)
(0.0651482 -6.48699e-05 -1.02258e-06)
(0.065159 -6.53573e-05 -1.02275e-06)
(0.0651699 -6.58521e-05 -1.02292e-06)
(0.065181 -6.63544e-05 -1.0231e-06)
(0.0651923 -6.68645e-05 -1.02327e-06)
(0.0652037 -6.73824e-05 -1.02345e-06)
(0.0652153 -6.79085e-05 -1.02363e-06)
(0.0652271 -6.84428e-05 -1.02382e-06)
(0.0652391 -6.89856e-05 -1.02401e-06)
(0.0652513 -6.9537e-05 -1.0242e-06)
(0.0652637 -7.00974e-05 -1.02439e-06)
(0.0652762 -7.06668e-05 -1.02459e-06)
(0.0653545 -7.07464e-05 -2.29175e-09)
(0.06499 -6.07354e-05 -1.02032e-06)
(0.064999 -6.11625e-05 -1.02046e-06)
(0.0650081 -6.15956e-05 -1.0206e-06)
(0.0650174 -6.20349e-05 -1.02075e-06)
(0.0650267 -6.24805e-05 -1.0209e-06)
(0.0650362 -6.29325e-05 -1.02105e-06)
(0.0650459 -6.33911e-05 -1.0212e-06)
(0.0650557 -6.38565e-05 -1.02136e-06)
(0.0650656 -6.43288e-05 -1.02151e-06)
(0.0650757 -6.48081e-05 -1.02167e-06)
(0.0650859 -6.52945e-05 -1.02184e-06)
(0.0650963 -6.57884e-05 -1.022e-06)
(0.0651068 -6.62898e-05 -1.02217e-06)
(0.0651175 -6.67988e-05 -1.02234e-06)
(0.0651284 -6.73158e-05 -1.02251e-06)
(0.0651394 -6.78408e-05 -1.02268e-06)
(0.0651506 -6.8374e-05 -1.02286e-06)
(0.065162 -6.89157e-05 -1.02304e-06)
(0.0651735 -6.94661e-05 -1.02322e-06)
(0.0651853 -7.00253e-05 -1.02341e-06)
(0.0651972 -7.05936e-05 -1.0236e-06)
(0.0652754 -7.06729e-05 -2.17132e-09)
(0.0649221 -6.06811e-05 -1.01947e-06)
(0.0649306 -6.11074e-05 -1.0196e-06)
(0.0649392 -6.15397e-05 -1.01974e-06)
(0.064948 -6.19782e-05 -1.01988e-06)
(0.0649569 -6.2423e-05 -1.02002e-06)
(0.0649659 -6.28742e-05 -1.02017e-06)
(0.064975 -6.3332e-05 -1.02031e-06)
(0.0649843 -6.37965e-05 -1.02046e-06)
(0.0649937 -6.42679e-05 -1.02061e-06)
(0.0650032 -6.47463e-05 -1.02077e-06)
(0.0650129 -6.52319e-05 -1.02092e-06)
(0.0650227 -6.57248e-05 -1.02108e-06)
(0.0650327 -6.62252e-05 -1.02124e-06)
(0.0650428 -6.67332e-05 -1.0214e-06)
(0.0650531 -6.72492e-05 -1.02157e-06)
(0.0650635 -6.77732e-05 -1.02173e-06)
(0.0650741 -6.83054e-05 -1.0219e-06)
(0.0650849 -6.8846e-05 -1.02208e-06)
(0.0650958 -6.93952e-05 -1.02225e-06)
(0.065107 -6.99533e-05 -1.02243e-06)
(0.0651183 -7.05205e-05 -1.02261e-06)
(0.0651963 -7.05996e-05 -2.0508e-09)
(0.0648543 -6.06268e-05 -1.01861e-06)
(0.0648623 -6.10523e-05 -1.01874e-06)
(0.0648704 -6.14839e-05 -1.01888e-06)
(0.0648787 -6.19216e-05 -1.01901e-06)
(0.064887 -6.23656e-05 -1.01915e-06)
(0.0648955 -6.2816e-05 -1.01929e-06)
(0.0649042 -6.32729e-05 -1.01943e-06)
(0.0649129 -6.37366e-05 -1.01957e-06)
(0.0649218 -6.42071e-05 -1.01971e-06)
(0.0649308 -6.46846e-05 -1.01986e-06)
(0.0649399 -6.51692e-05 -1.02001e-06)
(0.0649492 -6.56612e-05 -1.02016e-06)
(0.0649586 -6.61606e-05 -1.02031e-06)
(0.0649682 -6.66677e-05 -1.02046e-06)
(0.0649779 -6.71826e-05 -1.02062e-06)
(0.0649877 -6.77056e-05 -1.02078e-06)
(0.0649977 -6.82367e-05 -1.02094e-06)
(0.0650079 -6.87763e-05 -1.02111e-06)
(0.0650182 -6.93244e-05 -1.02128e-06)
(0.0650287 -6.98814e-05 -1.02145e-06)
(0.0650394 -7.04474e-05 -1.02162e-06)
(0.0651174 -7.05263e-05 -1.93018e-09)
(0.0647864 -6.05726e-05 -1.01776e-06)
(0.064794 -6.09973e-05 -1.01789e-06)
(0.0648017 -6.14281e-05 -1.01801e-06)
(0.0648094 -6.18651e-05 -1.01814e-06)
(0.0648173 -6.23082e-05 -1.01827e-06)
(0.0648253 -6.27578e-05 -1.0184e-06)
(0.0648334 -6.32139e-05 -1.01854e-06)
(0.0648416 -6.36767e-05 -1.01867e-06)
(0.06485 -6.41463e-05 -1.01881e-06)
(0.0648584 -6.46229e-05 -1.01895e-06)
(0.064867 -6.51066e-05 -1.01909e-06)
(0.0648758 -6.55976e-05 -1.01924e-06)
(0.0648846 -6.60961e-05 -1.01938e-06)
(0.0648936 -6.66022e-05 -1.01953e-06)
(0.0649027 -6.71162e-05 -1.01968e-06)
(0.064912 -6.76381e-05 -1.01983e-06)
(0.0649214 -6.81682e-05 -1.01999e-06)
(0.064931 -6.87066e-05 -1.02015e-06)
(0.0649407 -6.92537e-05 -1.02031e-06)
(0.0649506 -6.98095e-05 -1.02047e-06)
(0.0649606 -7.03743e-05 -1.02063e-06)
(0.0650385 -7.0453e-05 -1.80958e-09)
(0.0647187 -6.05181e-05 -1.01691e-06)
(0.0647258 -6.09421e-05 -1.01703e-06)
(0.064733 -6.13722e-05 -1.01715e-06)
(0.0647402 -6.18083e-05 -1.01727e-06)
(0.0647476 -6.22507e-05 -1.0174e-06)
(0.0647551 -6.26994e-05 -1.01752e-06)
(0.0647627 -6.31547e-05 -1.01765e-06)
(0.0647704 -6.36166e-05 -1.01778e-06)
(0.0647782 -6.40853e-05 -1.01791e-06)
(0.0647862 -6.4561e-05 -1.01804e-06)
(0.0647942 -6.50438e-05 -1.01818e-06)
(0.0648024 -6.55339e-05 -1.01832e-06)
(0.0648107 -6.60314e-05 -1.01845e-06)
(0.0648191 -6.65366e-05 -1.0186e-06)
(0.0648277 -6.70495e-05 -1.01874e-06)
(0.0648364 -6.75704e-05 -1.01888e-06)
(0.0648452 -6.80994e-05 -1.01903e-06)
(0.0648541 -6.86368e-05 -1.01918e-06)
(0.0648633 -6.91827e-05 -1.01933e-06)
(0.0648725 -6.97374e-05 -1.01949e-06)
(0.0648819 -7.03011e-05 -1.01965e-06)
(0.0649597 -7.03796e-05 -1.68086e-09)
(0.0646512 -6.0454e-05 -1.01604e-06)
(0.0646578 -6.08772e-05 -1.01615e-06)
(0.0646645 -6.13063e-05 -1.01626e-06)
(0.0646713 -6.17416e-05 -1.01638e-06)
(0.0646782 -6.21831e-05 -1.0165e-06)
(0.0646851 -6.26309e-05 -1.01661e-06)
(0.0646922 -6.30853e-05 -1.01674e-06)
(0.0646994 -6.35463e-05 -1.01686e-06)
(0.0647067 -6.40141e-05 -1.01698e-06)
(0.0647141 -6.44888e-05 -1.01711e-06)
(0.0647216 -6.49706e-05 -1.01724e-06)
(0.0647293 -6.54596e-05 -1.01737e-06)
(0.064737 -6.59561e-05 -1.0175e-06)
(0.0647449 -6.64602e-05 -1.01763e-06)
(0.0647529 -6.6972e-05 -1.01777e-06)
(0.064761 -6.74918e-05 -1.0179e-06)
(0.0647692 -6.80197e-05 -1.01804e-06)
(0.0647776 -6.85559e-05 -1.01819e-06)
(0.0647861 -6.91006e-05 -1.01833e-06)
(0.0647947 -6.96541e-05 -1.01848e-06)
(0.0648035 -7.02165e-05 -1.01863e-06)
(0.0648812 -7.0294e-05 -7.13805e-10)
(0.0645837 -6.03897e-05 -1.01516e-06)
(0.0645899 -6.08121e-05 -1.01527e-06)
(0.0645961 -6.12404e-05 -1.01537e-06)
(0.0646024 -6.16748e-05 -1.01548e-06)
(0.0646088 -6.21154e-05 -1.01559e-06)
(0.0646153 -6.25624e-05 -1.01571e-06)
(0.0646218 -6.30158e-05 -1.01582e-06)
(0.0646285 -6.34759e-05 -1.01593e-06)
(0.0646353 -6.39427e-05 -1.01605e-06)
(0.0646422 -6.44164e-05 -1.01617e-06)
(0.0646491 -6.48972e-05 -1.01629e-06)
(0.0646562 -6.53853e-05 -1.01641e-06)
(0.0646634 -6.58807e-05 -1.01654e-06)
(0.0646707 -6.63837e-05 -1.01667e-06)
(0.0646781 -6.68944e-05 -1.01679e-06)
(0.0646857 -6.74131e-05 -1.01692e-06)
(0.0646933 -6.79398e-05 -1.01706e-06)
(0.0647011 -6.84749e-05 -1.01719e-06)
(0.064709 -6.90185e-05 -1.01733e-06)
(0.064717 -6.95707e-05 -1.01747e-06)
(0.0647251 -7.01319e-05 -1.01761e-06)
(0.0648028 -7.02093e-05 -6.20147e-10)
(0.0645163 -6.03254e-05 -1.01428e-06)
(0.064522 -6.07469e-05 -1.01438e-06)
(0.0645277 -6.11744e-05 -1.01448e-06)
(0.0645335 -6.16079e-05 -1.01459e-06)
(0.0645394 -6.20477e-05 -1.01469e-06)
(0.0645454 -6.24937e-05 -1.0148e-06)
(0.0645515 -6.29462e-05 -1.0149e-06)
(0.0645577 -6.34053e-05 -1.01501e-06)
(0.0645639 -6.38712e-05 -1.01512e-06)
(0.0645703 -6.4344e-05 -1.01524e-06)
(0.0645767 -6.48238e-05 -1.01535e-06)
(0.0645833 -6.53108e-05 -1.01546e-06)
(0.0645899 -6.58052e-05 -1.01558e-06)
(0.0645966 -6.63071e-05 -1.0157e-06)
(0.0646035 -6.68168e-05 -1.01582e-06)
(0.0646104 -6.73343e-05 -1.01594e-06)
(0.0646175 -6.78599e-05 -1.01607e-06)
(0.0646247 -6.83938e-05 -1.0162e-06)
(0.0646319 -6.89362e-05 -1.01632e-06)
(0.0646393 -6.94872e-05 -1.01646e-06)
(0.0646468 -7.00471e-05 -1.01659e-06)
(0.0647244 -7.01245e-05 -5.53183e-10)
(0.064449 -6.02609e-05 -1.0134e-06)
(0.0644542 -6.06816e-05 -1.0135e-06)
(0.0644594 -6.11083e-05 -1.01359e-06)
(0.0644648 -6.1541e-05 -1.01369e-06)
(0.0644702 -6.19798e-05 -1.01379e-06)
(0.0644757 -6.2425e-05 -1.01389e-06)
(0.0644813 -6.28766e-05 -1.01399e-06)
(0.0644869 -6.33347e-05 -1.01409e-06)
(0.0644926 -6.37996e-05 -1.01419e-06)
(0.0644985 -6.42714e-05 -1.0143e-06)
(0.0645044 -6.47502e-05 -1.01441e-06)
(0.0645104 -6.52362e-05 -1.01452e-06)
(0.0645165 -6.57296e-05 -1.01463e-06)
(0.0645226 -6.62304e-05 -1.01474e-06)
(0.0645289 -6.6739e-05 -1.01485e-06)
(0.0645353 -6.72554e-05 -1.01497e-06)
(0.0645417 -6.77799e-05 -1.01508e-06)
(0.0645483 -6.83126e-05 -1.0152e-06)
(0.064555 -6.88538e-05 -1.01532e-06)
(0.0645618 -6.94036e-05 -1.01544e-06)
(0.0645687 -6.99623e-05 -1.01557e-06)
(0.0646462 -7.00395e-05 -4.86352e-10)
(0.0643817 -6.01964e-05 -1.01253e-06)
(0.0643864 -6.06163e-05 -1.01262e-06)
(0.0643912 -6.10421e-05 -1.01271e-06)
(0.0643961 -6.14739e-05 -1.0128e-06)
(0.064401 -6.19119e-05 -1.01289e-06)
(0.064406 -6.23561e-05 -1.01298e-06)
(0.0644111 -6.28068e-05 -1.01307e-06)
(0.0644162 -6.3264e-05 -1.01317e-06)
(0.0644214 -6.3728e-05 -1.01327e-06)
(0.0644267 -6.41988e-05 -1.01337e-06)
(0.0644321 -6.46766e-05 -1.01347e-06)
(0.0644375 -6.51616e-05 -1.01357e-06)
(0.0644431 -6.56539e-05 -1.01367e-06)
(0.0644487 -6.61537e-05 -1.01377e-06)
(0.0644544 -6.66611e-05 -1.01388e-06)
(0.0644602 -6.71764e-05 -1.01399e-06)
(0.0644661 -6.76998e-05 -1.0141e-06)
(0.0644721 -6.82313e-05 -1.01421e-06)
(0.0644781 -6.87713e-05 -1.01432e-06)
(0.0644843 -6.93199e-05 -1.01444e-06)
(0.0644906 -6.98773e-05 -1.01455e-06)
(0.064568 -6.99545e-05 -4.19699e-10)
(0.0643145 -6.01318e-05 -1.01165e-06)
(0.0643188 -6.05508e-05 -1.01173e-06)
(0.0643231 -6.09758e-05 -1.01182e-06)
(0.0643275 -6.14067e-05 -1.0119e-06)
(0.0643319 -6.18438e-05 -1.01199e-06)
(0.0643364 -6.22872e-05 -1.01207e-06)
(0.0643409 -6.27369e-05 -1.01216e-06)
(0.0643456 -6.31932e-05 -1.01225e-06)
(0.0643503 -6.36562e-05 -1.01234e-06)
(0.064355 -6.4126e-05 -1.01243e-06)
(0.0643599 -6.46028e-05 -1.01252e-06)
(0.0643648 -6.50868e-05 -1.01262e-06)
(0.0643698 -6.5578e-05 -1.01271e-06)
(0.0643748 -6.60768e-05 -1.01281e-06)
(0.06438 -6.65831e-05 -1.01291e-06)
(0.0643852 -6.70973e-05 -1.01301e-06)
(0.0643905 -6.76195e-05 -1.01311e-06)
(0.0643959 -6.81499e-05 -1.01322e-06)
(0.0644014 -6.86887e-05 -1.01332e-06)
(0.0644069 -6.92361e-05 -1.01343e-06)
(0.0644126 -6.97922e-05 -1.01354e-06)
(0.0644899 -6.98694e-05 -3.53222e-10)
(0.0642474 -6.00671e-05 -1.01078e-06)
(0.0642512 -6.04853e-05 -1.01085e-06)
(0.064255 -6.09094e-05 -1.01093e-06)
(0.0642589 -6.13395e-05 -1.01101e-06)
(0.0642628 -6.17757e-05 -1.01109e-06)
(0.0642668 -6.22181e-05 -1.01117e-06)
(0.0642709 -6.2667e-05 -1.01125e-06)
(0.064275 -6.31223e-05 -1.01133e-06)
(0.0642792 -6.35844e-05 -1.01141e-06)
(0.0642834 -6.40532e-05 -1.0115e-06)
(0.0642878 -6.4529e-05 -1.01158e-06)
(0.0642921 -6.50119e-05 -1.01167e-06)
(0.0642966 -6.55021e-05 -1.01176e-06)
(0.0643011 -6.59998e-05 -1.01185e-06)
(0.0643056 -6.65051e-05 -1.01194e-06)
(0.0643103 -6.70182e-05 -1.01203e-06)
(0.064315 -6.75392e-05 -1.01213e-06)
(0.0643198 -6.80684e-05 -1.01222e-06)
(0.0643247 -6.8606e-05 -1.01232e-06)
(0.0643296 -6.91521e-05 -1.01242e-06)
(0.0643346 -6.97071e-05 -1.01252e-06)
(0.0644119 -6.97842e-05 -2.86924e-10)
(0.0641803 -6.00023e-05 -1.0099e-06)
(0.0641836 -6.04197e-05 -1.00997e-06)
(0.064187 -6.08429e-05 -1.01004e-06)
(0.0641904 -6.12721e-05 -1.01011e-06)
(0.0641938 -6.17075e-05 -1.01019e-06)
(0.0641974 -6.2149e-05 -1.01026e-06)
(0.0642009 -6.25969e-05 -1.01034e-06)
(0.0642045 -6.30513e-05 -1.01041e-06)
(0.0642082 -6.35124e-05 -1.01049e-06)
(0.0642119 -6.39803e-05 -1.01057e-06)
(0.0642157 -6.44551e-05 -1.01064e-06)
(0.0642195 -6.4937e-05 -1.01072e-06)
(0.0642234 -6.54261e-05 -1.01081e-06)
(0.0642274 -6.59227e-05 -1.01089e-06)
(0.0642314 -6.64269e-05 -1.01097e-06)
(0.0642354 -6.69389e-05 -1.01106e-06)
(0.0642396 -6.74588e-05 -1.01114e-06)
(0.0642438 -6.79868e-05 -1.01123e-06)
(0.0642481 -6.85232e-05 -1.01132e-06)
(0.0642524 -6.90681e-05 -1.01141e-06)
(0.0642568 -6.96218e-05 -1.01151e-06)
(0.064334 -6.96989e-05 -2.20804e-10)
(0.0641133 -5.99374e-05 -1.00903e-06)
(0.0641161 -6.0354e-05 -1.00909e-06)
(0.064119 -6.07764e-05 -1.00916e-06)
(0.064122 -6.12047e-05 -1.00922e-06)
(0.0641249 -6.16392e-05 -1.00929e-06)
(0.0641279 -6.20798e-05 -1.00936e-06)
(0.064131 -6.25268e-05 -1.00942e-06)
(0.0641341 -6.29803e-05 -1.00949e-06)
(0.0641373 -6.34404e-05 -1.00956e-06)
(0.0641405 -6.39073e-05 -1.00963e-06)
(0.0641437 -6.43811e-05 -1.00971e-06)
(0.064147 -6.48619e-05 -1.00978e-06)
(0.0641503 -6.535e-05 -1.00985e-06)
(0.0641537 -6.58456e-05 -1.00993e-06)
(0.0641572 -6.63487e-05 -1.01001e-06)
(0.0641607 -6.68595e-05 -1.01008e-06)
(0.0641642 -6.73783e-05 -1.01016e-06)
(0.0641679 -6.79051e-05 -1.01024e-06)
(0.0641715 -6.84403e-05 -1.01032e-06)
(0.0641753 -6.8984e-05 -1.01041e-06)
(0.064179 -6.95364e-05 -1.01049e-06)
(0.0642561 -6.96134e-05 -1.54862e-10)
(0.0640463 -5.98724e-05 -1.00816e-06)
(0.0640487 -6.02882e-05 -1.00821e-06)
(0.0640511 -6.07097e-05 -1.00827e-06)
(0.0640536 -6.11372e-05 -1.00833e-06)
(0.0640561 -6.15708e-05 -1.00839e-06)
(0.0640586 -6.20105e-05 -1.00845e-06)
(0.0640612 -6.24566e-05 -1.00851e-06)
(0.0640638 -6.29091e-05 -1.00858e-06)
(0.0640664 -6.33683e-05 -1.00864e-06)
(0.0640691 -6.38342e-05 -1.0087e-06)
(0.0640718 -6.43069e-05 -1.00877e-06)
(0.0640745 -6.47868e-05 -1.00883e-06)
(0.0640773 -6.52739e-05 -1.0089e-06)
(0.0640802 -6.57683e-05 -1.00897e-06)
(0.0640831 -6.62703e-05 -1.00904e-06)
(0.064086 -6.678e-05 -1.00911e-06)
(0.064089 -6.72976e-05 -1.00918e-06)
(0.064092 -6.78233e-05 -1.00925e-06)
(0.0640951 -6.83573e-05 -1.00933e-06)
(0.0640982 -6.88998e-05 -1.0094e-06)
(0.0641014 -6.94509e-05 -1.00948e-06)
(0.0641784 -6.95279e-05 -8.90992e-11)
(0.0639794 -5.98074e-05 -1.00728e-06)
(0.0639814 -6.02223e-05 -1.00734e-06)
(0.0639833 -6.0643e-05 -1.00739e-06)
(0.0639853 -6.10696e-05 -1.00744e-06)
(0.0639873 -6.15023e-05 -1.00749e-06)
(0.0639893 -6.19411e-05 -1.00755e-06)
(0.0639914 -6.23863e-05 -1.0076e-06)
(0.0639935 -6.28379e-05 -1.00766e-06)
(0.0639956 -6.3296e-05 -1.00772e-06)
(0.0639978 -6.3761e-05 -1.00777e-06)
(0.064 -6.42327e-05 -1.00783e-06)
(0.0640022 -6.47116e-05 -1.00789e-06)
(0.0640044 -6.51976e-05 -1.00795e-06)
(0.0640067 -6.5691e-05 -1.00801e-06)
(0.064009 -6.61919e-05 -1.00807e-06)
(0.0640114 -6.67004e-05 -1.00814e-06)
(0.0640138 -6.72169e-05 -1.0082e-06)
(0.0640162 -6.77415e-05 -1.00826e-06)
(0.0640187 -6.82742e-05 -1.00833e-06)
(0.0640212 -6.88155e-05 -1.0084e-06)
(0.0640238 -6.93653e-05 -1.00847e-06)
(0.0641007 -6.94423e-05 -2.35156e-11)
(0.0639126 -5.97423e-05 -1.00641e-06)
(0.0639141 -6.01564e-05 -1.00646e-06)
(0.0639155 -6.05762e-05 -1.0065e-06)
(0.063917 -6.1002e-05 -1.00655e-06)
(0.0639186 -6.14337e-05 -1.0066e-06)
(0.0639201 -6.18717e-05 -1.00664e-06)
(0.0639217 -6.23159e-05 -1.00669e-06)
(0.0639233 -6.27665e-05 -1.00674e-06)
(0.0639249 -6.32238e-05 -1.00679e-06)
(0.0639265 -6.36877e-05 -1.00684e-06)
(0.0639282 -6.41585e-05 -1.00689e-06)
(0.0639299 -6.46363e-05 -1.00695e-06)
(0.0639316 -6.51212e-05 -1.007e-06)
(0.0639333 -6.56135e-05 -1.00705e-06)
(0.0639351 -6.61133e-05 -1.00711e-06)
(0.0639369 -6.66208e-05 -1.00716e-06)
(0.0639387 -6.71361e-05 -1.00722e-06)
(0.0639406 -6.76595e-05 -1.00728e-06)
(0.0639424 -6.81911e-05 -1.00733e-06)
(0.0639444 -6.87311e-05 -1.00739e-06)
(0.0639463 -6.92797e-05 -1.00745e-06)
(0.0640231 -6.93565e-05 4.18886e-11)
(0.0638458 -5.96771e-05 -1.00554e-06)
(0.0638468 -6.00903e-05 -1.00558e-06)
(0.0638479 -6.05093e-05 -1.00562e-06)
(0.0638489 -6.09342e-05 -1.00566e-06)
(0.0638499 -6.13651e-05 -1.0057e-06)
(0.063851 -6.18021e-05 -1.00574e-06)
(0.063852 -6.22454e-05 -1.00578e-06)
(0.0638531 -6.26951e-05 -1.00583e-06)
(0.0638542 -6.31514e-05 -1.00587e-06)
(0.0638554 -6.36143e-05 -1.00591e-06)
(0.0638565 -6.40841e-05 -1.00596e-06)
(0.0638576 -6.45609e-05 -1.006e-06)
(0.0638588 -6.50448e-05 -1.00605e-06)
(0.06386 -6.5536e-05 -1.0061e-06)
(0.0638612 -6.60347e-05 -1.00614e-06)
(0.0638624 -6.6541e-05 -1.00619e-06)
(0.0638637 -6.70552e-05 -1.00624e-06)
(0.063865 -6.75774e-05 -1.00629e-06)
(0.0638662 -6.81078e-05 -1.00634e-06)
(0.0638676 -6.86465e-05 -1.00639e-06)
(0.0638689 -6.91939e-05 -1.00644e-06)
(0.0639456 -6.92707e-05 1.07079e-10)
(0.0637792 -5.96128e-05 -1.00467e-06)
(0.0637797 -6.00252e-05 -1.0047e-06)
(0.0637802 -6.04433e-05 -1.00474e-06)
(0.0637808 -6.08673e-05 -1.00477e-06)
(0.0637813 -6.12974e-05 -1.00481e-06)
(0.0637819 -6.17335e-05 -1.00484e-06)
(0.0637825 -6.21759e-05 -1.00488e-06)
(0.0637831 -6.26247e-05 -1.00491e-06)
(0.0637837 -6.308e-05 -1.00495e-06)
(0.0637843 -6.35419e-05 -1.00499e-06)
(0.0637849 -6.40107e-05 -1.00502e-06)
(0.0637855 -6.44865e-05 -1.00506e-06)
(0.0637861 -6.49693e-05 -1.0051e-06)
(0.0637868 -6.54595e-05 -1.00514e-06)
(0.0637874 -6.59571e-05 -1.00518e-06)
(0.0637881 -6.64623e-05 -1.00522e-06)
(0.0637888 -6.69754e-05 -1.00526e-06)
(0.0637894 -6.74964e-05 -1.0053e-06)
(0.0637901 -6.80256e-05 -1.00535e-06)
(0.0637909 -6.85632e-05 -1.00539e-06)
(0.0637916 -6.91093e-05 -1.00543e-06)
(0.0638682 -6.9186e-05 1.99914e-10)
(0.0637098 -5.93843e-05 -1.00425e-06)
(0.0637099 -5.97947e-05 -1.00428e-06)
(0.0637099 -6.02109e-05 -1.00431e-06)
(0.06371 -6.06329e-05 -1.00435e-06)
(0.06371 -6.10608e-05 -1.00438e-06)
(0.0637101 -6.14949e-05 -1.00441e-06)
(0.0637102 -6.19351e-05 -1.00444e-06)
(0.0637102 -6.23817e-05 -1.00447e-06)
(0.0637103 -6.28348e-05 -1.00451e-06)
(0.0637104 -6.32945e-05 -1.00454e-06)
(0.0637104 -6.3761e-05 -1.00458e-06)
(0.0637105 -6.42344e-05 -1.00461e-06)
(0.0637106 -6.47149e-05 -1.00465e-06)
(0.0637106 -6.52026e-05 -1.00468e-06)
(0.0637107 -6.56978e-05 -1.00472e-06)
(0.0637108 -6.62005e-05 -1.00476e-06)
(0.0637109 -6.6711e-05 -1.00479e-06)
(0.0637109 -6.72294e-05 -1.00483e-06)
(0.063711 -6.7756e-05 -1.00487e-06)
(0.0637111 -6.82908e-05 -1.00491e-06)
(0.0637112 -6.88342e-05 -1.00495e-06)
(0.0637879 -6.89262e-05 -1.29662e-08)
)
;

boundaryField
{
    inlet
    {
        type            calculated;
        value           uniform (0 0 0);
    }
    outlet2
    {
        type            calculated;
        value           uniform (0 0 0);
    }
    outlet1
    {
        type            calculated;
        value           uniform (0 0 0);
    }
    wall
    {
        type            calculated;
        value           uniform (0 0 0);
    }
    symmetryBottom
    {
        type            symmetry;
    }
    symmetryZ0
    {
        type            symmetry;
    }
    symmetryZ05
    {
        type            symmetry;
    }
}


// ************************************************************************* //
