/*--------------------------------*- C++ -*----------------------------------*\
| =========                 |                                                 |
| \\      /  F ield         | OpenFOAM: The Open Source CFD Toolbox           |
|  \\    /   O peration     | Version:  2412                                  |
|   \\  /    A nd           | Website:  www.openfoam.com                      |
|    \\/     M anipulation  |                                                 |
\*---------------------------------------------------------------------------*/
FoamFile
{
    version     2.0;
    format      ascii;
    arch        "LSB;label=32;scalar=64";
    class       volVectorField;
    location    "1.16035e-06";
    object      U;
}
// * * * * * * * * * * * * * * * * * * * * * * * * * * * * * * * * * * * * * //

dimensions      [0 0 0 0 0 0 0];

internalField   nonuniform List<vector> 
625
(
(2635.7 -0.0184108 0.0377738)
(2633.45 -0.0242435 0.0417691)
(2633.45 -0.0242638 0.000488842)
(2635.7 -2.37412 0.0377788)
(2633.45 -2.46133 0.0417745)
(2633.45 -2.46137 -6.6919e-05)
(2635.7 -2.36523 0.03778)
(2633.45 -2.45244 0.0417743)
(2633.45 -2.45246 -5.50579e-05)
(2635.7 -2.36526 0.0377799)
(2633.45 -2.45247 0.0417743)
(2633.45 -2.4525 -5.51068e-05)
(2635.7 -2.36526 0.0377799)
(2633.45 -2.45247 0.0417743)
(2633.45 -2.4525 -5.51066e-05)
(2635.7 -2.36526 0.0377799)
(2633.45 -2.45247 0.0417743)
(2633.45 -2.4525 -5.51066e-05)
(2635.7 -2.36526 0.0377799)
(2633.45 -2.45247 0.0417743)
(2633.45 -2.4525 -5.51066e-05)
(2635.7 -2.36526 0.0377799)
(2633.45 -2.45247 0.0417743)
(2633.45 -2.4525 -5.51066e-05)
(2635.7 -2.36526 0.0377799)
(2633.45 -2.45247 0.0417743)
(2633.45 -2.4525 -5.51066e-05)
(2635.7 -2.36526 0.0377799)
(2633.45 -2.45247 0.0417743)
(2633.45 -2.4525 -5.51066e-05)
(2635.7 -2.36526 0.0377799)
(2633.45 -2.45247 0.0417743)
(2633.45 -2.4525 -5.51066e-05)
(2635.7 -2.36526 0.0377799)
(2633.45 -2.45247 0.0417743)
(2633.45 -2.4525 -5.51066e-05)
(2635.7 -2.36526 0.0377799)
(2633.45 -2.45247 0.0417743)
(2633.45 -2.4525 -5.51066e-05)
(2635.7 -2.36526 0.0377799)
(2633.45 -2.45247 0.0417743)
(2633.45 -2.4525 -5.51066e-05)
(2635.7 -2.36526 0.0377799)
(2633.45 -2.45247 0.0417743)
(2633.45 -2.4525 -5.51066e-05)
(2635.7 -2.36526 0.0377799)
(2633.45 -2.45247 0.0417743)
(2633.45 -2.4525 -5.51066e-05)
(2635.7 -2.36526 0.0377799)
(2633.45 -2.45247 0.0417743)
(2633.45 -2.4525 -5.51066e-05)
(2635.7 -2.36526 0.0377799)
(2633.45 -2.45247 0.0417743)
(2633.45 -2.4525 -5.51066e-05)
(2635.7 -2.36526 0.0377799)
(2633.45 -2.45247 0.0417743)
(2633.45 -2.4525 -5.51066e-05)
(2635.7 -2.36526 0.0377799)
(2633.45 -2.45247 0.0417743)
(2633.45 -2.4525 -5.51066e-05)
(2635.7 -2.36526 0.0377799)
(2633.45 -2.45247 0.0417743)
(2633.45 -2.4525 -5.51066e-05)
(2635.7 -2.36526 0.0377799)
(2633.45 -2.45247 0.0417743)
(2633.45 -2.4525 -5.51068e-05)
(2635.7 -2.36526 0.0377799)
(2633.45 -2.45247 0.0417743)
(2633.45 -2.4525 -5.46454e-05)
(2635.7 -2.36525 0.03778)
(2633.45 -2.45252 0.0417743)
(2633.45 -2.45278 -0.000218969)
(2635.7 -2.36339 0.0378103)
(2633.45 -2.44506 0.0417965)
(2633.45 -2.44533 0.041487)
(2621.57 0.564306 0.045388)
(2621.45 0.573025 0.0454222)
(2621.33 0.581946 0.0454569)
(2621.21 0.591073 0.0454922)
(2621.08 0.600415 0.0455282)
(2620.95 0.609977 0.0455648)
(2620.82 0.619766 0.045602)
(2620.68 0.62979 0.04564)
(2620.55 0.640056 0.0456786)
(2620.41 0.650572 0.0457179)
(2620.26 0.661346 0.045758)
(2620.12 0.672387 0.0457988)
(2619.97 0.683703 0.0458404)
(2619.82 0.695303 0.0458828)
(2619.66 0.707198 0.0459259)
(2619.5 0.719397 0.04597)
(2619.34 0.731911 0.0460148)
(2619.18 0.744749 0.0460606)
(2619.01 0.757925 0.0461072)
(2618.84 0.771448 0.0461548)
(2618.66 0.785333 0.0462034)
(2618.68 0.789099 0.00336654)
(2634.47 -2.27092 0.0417764)
(2634.48 -2.28493 0.041777)
(2634.48 -2.29911 0.0417776)
(2634.48 -2.31346 0.0417782)
(2634.49 -2.32798 0.0417788)
(2634.49 -2.34267 0.0417794)
(2634.5 -2.35754 0.0417801)
(2634.5 -2.3726 0.0417807)
(2634.51 -2.38783 0.0417813)
(2634.51 -2.40326 0.0417819)
(2634.51 -2.41887 0.0417825)
(2634.52 -2.43468 0.0417831)
(2634.52 -2.45068 0.0417837)
(2634.53 -2.46688 0.0417843)
(2634.53 -2.48329 0.0417849)
(2634.54 -2.49991 0.0417855)
(2634.54 -2.51673 0.0417861)
(2634.55 -2.53377 0.0417867)
(2634.55 -2.55103 0.0417873)
(2634.56 -2.5685 0.0417879)
(2634.57 -2.58621 0.0417885)
(2634.58 -2.5863 -0.000388251)
(2634.37 -2.4633 0.0418548)
(2634.37 -2.48031 0.0418565)
(2634.37 -2.49756 0.0418582)
(2634.38 -2.51505 0.0418599)
(2634.38 -2.53279 0.0418616)
(2634.38 -2.55078 0.0418634)
(2634.38 -2.56902 0.0418651)
(2634.39 -2.58753 0.041867)
(2634.39 -2.60631 0.0418688)
(2634.39 -2.62537 0.0418706)
(2634.39 -2.64471 0.0418725)
(2634.4 -2.66433 0.0418744)
(2634.4 -2.68425 0.0418764)
(2634.4 -2.70446 0.0418784)
(2634.41 -2.72499 0.0418804)
(2634.41 -2.74583 0.0418824)
(2634.41 -2.76699 0.0418845)
(2634.42 -2.78848 0.0418866)
(2634.42 -2.81031 0.0418887)
(2634.42 -2.83248 0.0418909)
(2634.43 -2.85501 0.0418931)
(2634.44 -2.8549 -0.000247019)
(2634.35 -2.46109 0.0418628)
(2634.35 -2.47805 0.0418645)
(2634.36 -2.49524 0.0418663)
(2634.36 -2.51268 0.041868)
(2634.36 -2.53036 0.0418698)
(2634.36 -2.54829 0.0418716)
(2634.37 -2.56648 0.0418734)
(2634.37 -2.58493 0.0418753)
(2634.37 -2.60364 0.0418772)
(2634.37 -2.62263 0.0418791)
(2634.38 -2.6419 0.041881)
(2634.38 -2.66145 0.041883)
(2634.38 -2.6813 0.041885)
(2634.39 -2.70144 0.041887)
(2634.39 -2.72189 0.0418891)
(2634.39 -2.74265 0.0418912)
(2634.39 -2.76372 0.0418933)
(2634.4 -2.78513 0.0418955)
(2634.4 -2.80687 0.0418976)
(2634.4 -2.82895 0.0418999)
(2634.41 -2.85138 0.0419021)
(2634.43 -2.85127 -0.000243168)
(2634.33 -2.46146 0.0418712)
(2634.34 -2.47843 0.041873)
(2634.34 -2.49563 0.0418748)
(2634.34 -2.51307 0.0418766)
(2634.34 -2.53076 0.0418784)
(2634.35 -2.54869 0.0418803)
(2634.35 -2.56689 0.0418822)
(2634.35 -2.58534 0.0418841)
(2634.35 -2.60406 0.0418861)
(2634.36 -2.62306 0.041888)
(2634.36 -2.64233 0.04189)
(2634.36 -2.66189 0.0418921)
(2634.36 -2.68175 0.0418942)
(2634.37 -2.7019 0.0418963)
(2634.37 -2.72235 0.0418984)
(2634.37 -2.74312 0.0419005)
(2634.38 -2.7642 0.0419027)
(2634.38 -2.78562 0.041905)
(2634.38 -2.80736 0.0419072)
(2634.38 -2.82945 0.0419095)
(2634.39 -2.85189 0.0419119)
(2634.41 -2.85177 -0.000239208)
(2634.32 -2.46182 0.0418796)
(2634.32 -2.47879 0.0418814)
(2634.32 -2.49599 0.0418833)
(2634.32 -2.51344 0.0418852)
(2634.33 -2.53113 0.0418871)
(2634.33 -2.54907 0.041889)
(2634.33 -2.56727 0.041891)
(2634.33 -2.58573 0.0418929)
(2634.34 -2.60446 0.041895)
(2634.34 -2.62346 0.041897)
(2634.34 -2.64274 0.0418991)
(2634.34 -2.66231 0.0419012)
(2634.35 -2.68217 0.0419033)
(2634.35 -2.70232 0.0419055)
(2634.35 -2.72279 0.0419077)
(2634.35 -2.74356 0.0419099)
(2634.36 -2.76465 0.0419122)
(2634.36 -2.78607 0.0419145)
(2634.36 -2.80783 0.0419168)
(2634.37 -2.82992 0.0419192)
(2634.37 -2.85237 0.0419216)
(2634.39 -2.85225 -0.000235241)
(2634.3 -2.46217 0.041888)
(2634.3 -2.47915 0.0418899)
(2634.31 -2.49636 0.0418918)
(2634.31 -2.51381 0.0418938)
(2634.31 -2.53151 0.0418957)
(2634.31 -2.54946 0.0418977)
(2634.31 -2.56766 0.0418997)
(2634.32 -2.58613 0.0419018)
(2634.32 -2.60486 0.0419039)
(2634.32 -2.62387 0.041906)
(2634.32 -2.64315 0.0419081)
(2634.33 -2.66273 0.0419103)
(2634.33 -2.68259 0.0419125)
(2634.33 -2.70275 0.0419147)
(2634.33 -2.72322 0.041917)
(2634.34 -2.744 0.0419193)
(2634.34 -2.7651 0.0419216)
(2634.34 -2.78653 0.041924)
(2634.34 -2.80829 0.0419264)
(2634.35 -2.83039 0.0419289)
(2634.35 -2.85285 0.0419314)
(2634.37 -2.85272 -0.000231276)
(2634.28 -2.46253 0.0418964)
(2634.29 -2.47951 0.0418984)
(2634.29 -2.49673 0.0419004)
(2634.29 -2.51418 0.0419023)
(2634.29 -2.53189 0.0419044)
(2634.29 -2.54984 0.0419064)
(2634.3 -2.56805 0.0419085)
(2634.3 -2.58652 0.0419106)
(2634.3 -2.60526 0.0419128)
(2634.3 -2.62427 0.0419149)
(2634.31 -2.64356 0.0419171)
(2634.31 -2.66314 0.0419194)
(2634.31 -2.68301 0.0419216)
(2634.31 -2.70318 0.0419239)
(2634.31 -2.72366 0.0419263)
(2634.32 -2.74444 0.0419287)
(2634.32 -2.76555 0.0419311)
(2634.32 -2.78698 0.0419335)
(2634.32 -2.80875 0.041936)
(2634.33 -2.83086 0.0419385)
(2634.33 -2.85333 0.0419411)
(2634.35 -2.85319 -0.000227314)
(2634.27 -2.46289 0.0419049)
(2634.27 -2.47987 0.0419069)
(2634.27 -2.49709 0.0419089)
(2634.27 -2.51455 0.0419109)
(2634.28 -2.53226 0.041913)
(2634.28 -2.55022 0.0419151)
(2634.28 -2.56844 0.0419173)
(2634.28 -2.58691 0.0419195)
(2634.28 -2.60566 0.0419217)
(2634.29 -2.62468 0.0419239)
(2634.29 -2.64397 0.0419262)
(2634.29 -2.66356 0.0419285)
(2634.29 -2.68344 0.0419308)
(2634.29 -2.70361 0.0419332)
(2634.3 -2.72409 0.0419356)
(2634.3 -2.74489 0.041938)
(2634.3 -2.766 0.0419405)
(2634.3 -2.78744 0.0419431)
(2634.31 -2.80922 0.0419456)
(2634.31 -2.83133 0.0419482)
(2634.31 -2.8538 0.0419509)
(2634.33 -2.85367 -0.00022336)
(2634.25 -2.46323 0.0419132)
(2634.25 -2.48022 0.0419153)
(2634.25 -2.49745 0.0419174)
(2634.26 -2.51492 0.0419195)
(2634.26 -2.53263 0.0419216)
(2634.26 -2.55059 0.0419238)
(2634.26 -2.56881 0.041926)
(2634.26 -2.5873 0.0419282)
(2634.27 -2.60605 0.0419305)
(2634.27 -2.62507 0.0419328)
(2634.27 -2.64437 0.0419352)
(2634.27 -2.66396 0.0419375)
(2634.27 -2.68385 0.0419399)
(2634.28 -2.70403 0.0419424)
(2634.28 -2.72452 0.0419449)
(2634.28 -2.74532 0.0419474)
(2634.28 -2.76644 0.0419499)
(2634.28 -2.78789 0.0419525)
(2634.29 -2.80967 0.0419552)
(2634.29 -2.83179 0.0419578)
(2634.29 -2.85427 0.0419606)
(2634.31 -2.85413 -0.000219049)
(2634.23 -2.46318 0.0419201)
(2634.24 -2.48017 0.0419223)
(2634.24 -2.49739 0.0419244)
(2634.24 -2.51486 0.0419266)
(2634.24 -2.53258 0.0419287)
(2634.24 -2.55054 0.041931)
(2634.24 -2.56877 0.0419332)
(2634.25 -2.58725 0.0419355)
(2634.25 -2.60601 0.0419378)
(2634.25 -2.62503 0.0419402)
(2634.25 -2.64434 0.0419426)
(2634.25 -2.66393 0.041945)
(2634.26 -2.68382 0.0419475)
(2634.26 -2.704 0.04195)
(2634.26 -2.72449 0.0419525)
(2634.26 -2.7453 0.0419551)
(2634.26 -2.76642 0.0419577)
(2634.27 -2.78787 0.0419604)
(2634.27 -2.80966 0.0419631)
(2634.27 -2.83179 0.0419658)
(2634.27 -2.85427 0.0419686)
(2634.29 -2.85408 -0.000180278)
(2634.22 -2.46311 0.0419271)
(2634.22 -2.4801 0.0419293)
(2634.22 -2.49733 0.0419315)
(2634.22 -2.51481 0.0419337)
(2634.22 -2.53252 0.0419359)
(2634.23 -2.55049 0.0419382)
(2634.23 -2.56872 0.0419405)
(2634.23 -2.5872 0.0419428)
(2634.23 -2.60596 0.0419452)
(2634.23 -2.62499 0.0419476)
(2634.23 -2.6443 0.0419501)
(2634.24 -2.66389 0.0419526)
(2634.24 -2.68378 0.0419551)
(2634.24 -2.70397 0.0419576)
(2634.24 -2.72446 0.0419602)
(2634.24 -2.74527 0.0419629)
(2634.24 -2.76639 0.0419656)
(2634.25 -2.78785 0.0419683)
(2634.25 -2.80964 0.041971)
(2634.25 -2.83177 0.0419738)
(2634.25 -2.85425 0.0419767)
(2634.27 -2.85407 -0.000176913)
(2634.2 -2.46304 0.0419341)
(2634.2 -2.48004 0.0419363)
(2634.2 -2.49727 0.0419385)
(2634.21 -2.51474 0.0419408)
(2634.21 -2.53246 0.0419431)
(2634.21 -2.55043 0.0419454)
(2634.21 -2.56866 0.0419478)
(2634.21 -2.58715 0.0419502)
(2634.21 -2.6059 0.0419526)
(2634.21 -2.62494 0.0419551)
(2634.22 -2.64425 0.0419576)
(2634.22 -2.66385 0.0419601)
(2634.22 -2.68374 0.0419627)
(2634.22 -2.70393 0.0419653)
(2634.22 -2.72442 0.041968)
(2634.22 -2.74523 0.0419707)
(2634.23 -2.76636 0.0419734)
(2634.23 -2.78782 0.0419762)
(2634.23 -2.80961 0.041979)
(2634.23 -2.83175 0.0419819)
(2634.23 -2.85424 0.0419848)
(2634.25 -2.85406 -0.000174616)
(2634.18 -2.46296 0.0419411)
(2634.19 -2.47996 0.0419433)
(2634.19 -2.49719 0.0419456)
(2634.19 -2.51467 0.0419479)
(2634.19 -2.53239 0.0419503)
(2634.19 -2.55036 0.0419526)
(2634.19 -2.56859 0.041955)
(2634.19 -2.58708 0.0419575)
(2634.2 -2.60584 0.04196)
(2634.2 -2.62488 0.0419625)
(2634.2 -2.64419 0.0419651)
(2634.2 -2.66379 0.0419677)
(2634.2 -2.68369 0.0419703)
(2634.2 -2.70388 0.041973)
(2634.2 -2.72438 0.0419757)
(2634.21 -2.74519 0.0419784)
(2634.21 -2.76632 0.0419812)
(2634.21 -2.78778 0.0419841)
(2634.21 -2.80958 0.041987)
(2634.21 -2.83172 0.0419899)
(2634.21 -2.85421 0.0419929)
(2634.23 -2.85403 -0.000172326)
(2634.17 -2.46288 0.041948)
(2634.17 -2.47988 0.0419503)
(2634.17 -2.49711 0.0419527)
(2634.17 -2.51459 0.041955)
(2634.17 -2.53231 0.0419574)
(2634.17 -2.55029 0.0419599)
(2634.18 -2.56852 0.0419623)
(2634.18 -2.58701 0.0419648)
(2634.18 -2.60578 0.0419674)
(2634.18 -2.62481 0.0419699)
(2634.18 -2.64413 0.0419725)
(2634.18 -2.66373 0.0419752)
(2634.18 -2.68363 0.0419779)
(2634.18 -2.70382 0.0419806)
(2634.19 -2.72432 0.0419834)
(2634.19 -2.74514 0.0419862)
(2634.19 -2.76627 0.0419891)
(2634.19 -2.78774 0.041992)
(2634.19 -2.80954 0.0419949)
(2634.19 -2.83168 0.0419979)
(2634.19 -2.85417 0.0420009)
(2634.21 -2.854 -0.000170042)
(2634.15 -2.46279 0.041955)
(2634.15 -2.47979 0.0419574)
(2634.15 -2.49703 0.0419597)
(2634.15 -2.51451 0.0419622)
(2634.16 -2.53223 0.0419646)
(2634.16 -2.55021 0.0419671)
(2634.16 -2.56844 0.0419696)
(2634.16 -2.58694 0.0419722)
(2634.16 -2.6057 0.0419747)
(2634.16 -2.62474 0.0419774)
(2634.16 -2.64406 0.04198)
(2634.16 -2.66366 0.0419827)
(2634.17 -2.68356 0.0419855)
(2634.17 -2.70376 0.0419883)
(2634.17 -2.72426 0.0419911)
(2634.17 -2.74508 0.041994)
(2634.17 -2.76622 0.0419969)
(2634.17 -2.78768 0.0419999)
(2634.17 -2.80949 0.0420029)
(2634.17 -2.83163 0.0420059)
(2634.18 -2.85413 0.042009)
(2634.19 -2.85395 -0.000167767)
(2634.13 -2.4627 0.041962)
(2634.14 -2.4797 0.0419644)
(2634.14 -2.49694 0.0419668)
(2634.14 -2.51442 0.0419693)
(2634.14 -2.53214 0.0419718)
(2634.14 -2.55012 0.0419743)
(2634.14 -2.56836 0.0419769)
(2634.14 -2.58685 0.0419795)
(2634.14 -2.60562 0.0419821)
(2634.14 -2.62466 0.0419848)
(2634.14 -2.64398 0.0419875)
(2634.15 -2.66359 0.0419903)
(2634.15 -2.68349 0.0419931)
(2634.15 -2.70369 0.0419959)
(2634.15 -2.72419 0.0419988)
(2634.15 -2.74501 0.0420018)
(2634.15 -2.76615 0.0420047)
(2634.15 -2.78762 0.0420078)
(2634.15 -2.80943 0.0420108)
(2634.15 -2.83158 0.042014)
(2634.16 -2.85408 0.0420171)
(2634.18 -2.8539 -0.000165499)
(2634.12 -2.46259 0.041969)
(2634.12 -2.4796 0.0419714)
(2634.12 -2.49684 0.0419739)
(2634.12 -2.51432 0.0419764)
(2634.12 -2.53205 0.041979)
(2634.12 -2.55003 0.0419815)
(2634.12 -2.56826 0.0419842)
(2634.12 -2.58676 0.0419868)
(2634.13 -2.60553 0.0419895)
(2634.13 -2.62457 0.0419923)
(2634.13 -2.6439 0.041995)
(2634.13 -2.66351 0.0419979)
(2634.13 -2.68341 0.0420007)
(2634.13 -2.70361 0.0420036)
(2634.13 -2.72412 0.0420066)
(2634.13 -2.74494 0.0420096)
(2634.13 -2.76608 0.0420126)
(2634.13 -2.78755 0.0420157)
(2634.13 -2.80936 0.0420188)
(2634.14 -2.83151 0.042022)
(2634.14 -2.85402 0.0420252)
(2634.16 -2.85384 -0.00016324)
(2634.1 -2.46249 0.041976)
(2634.1 -2.47949 0.0419785)
(2634.1 -2.49673 0.041981)
(2634.1 -2.51422 0.0419835)
(2634.1 -2.53195 0.0419861)
(2634.11 -2.54993 0.0419888)
(2634.11 -2.56817 0.0419914)
(2634.11 -2.58667 0.0419942)
(2634.11 -2.60544 0.0419969)
(2634.11 -2.62448 0.0419997)
(2634.11 -2.6438 0.0420025)
(2634.11 -2.66342 0.0420054)
(2634.11 -2.68332 0.0420083)
(2634.11 -2.70352 0.0420113)
(2634.11 -2.72404 0.0420143)
(2634.11 -2.74486 0.0420173)
(2634.11 -2.766 0.0420204)
(2634.11 -2.78748 0.0420236)
(2634.12 -2.80929 0.0420268)
(2634.12 -2.83144 0.04203)
(2634.12 -2.85395 0.0420333)
(2634.14 -2.85378 -0.000160988)
(2634.09 -2.46237 0.0419829)
(2634.09 -2.47938 0.0419855)
(2634.09 -2.49662 0.0419881)
(2634.09 -2.51411 0.0419907)
(2634.09 -2.53184 0.0419933)
(2634.09 -2.54982 0.041996)
(2634.09 -2.56806 0.0419987)
(2634.09 -2.58656 0.0420015)
(2634.09 -2.60533 0.0420043)
(2634.09 -2.62438 0.0420071)
(2634.09 -2.64371 0.04201)
(2634.09 -2.66332 0.042013)
(2634.09 -2.68323 0.0420159)
(2634.09 -2.70343 0.042019)
(2634.09 -2.72395 0.042022)
(2634.09 -2.74477 0.0420251)
(2634.1 -2.76592 0.0420283)
(2634.1 -2.78739 0.0420315)
(2634.1 -2.80921 0.0420348)
(2634.1 -2.83136 0.0420381)
(2634.1 -2.85387 0.0420414)
(2634.12 -2.8537 -0.000158744)
(2634.07 -2.46225 0.0419899)
(2634.07 -2.47926 0.0419925)
(2634.07 -2.49651 0.0419951)
(2634.07 -2.51399 0.0419978)
(2634.07 -2.53172 0.0420005)
(2634.07 -2.54971 0.0420032)
(2634.07 -2.56795 0.042006)
(2634.07 -2.58645 0.0420088)
(2634.07 -2.60523 0.0420117)
(2634.07 -2.62427 0.0420146)
(2634.07 -2.6436 0.0420175)
(2634.07 -2.66322 0.0420205)
(2634.07 -2.68312 0.0420236)
(2634.07 -2.70333 0.0420266)
(2634.08 -2.72385 0.0420298)
(2634.08 -2.74468 0.0420329)
(2634.08 -2.76583 0.0420361)
(2634.08 -2.7873 0.0420394)
(2634.08 -2.80912 0.0420427)
(2634.08 -2.83128 0.0420461)
(2634.08 -2.85379 0.0420495)
(2634.1 -2.85362 -0.000156508)
(2634.05 -2.46213 0.0419969)
(2634.05 -2.47914 0.0419996)
(2634.05 -2.49638 0.0420022)
(2634.05 -2.51387 0.0420049)
(2634.05 -2.5316 0.0420077)
(2634.05 -2.54959 0.0420105)
(2634.05 -2.56783 0.0420133)
(2634.05 -2.58634 0.0420162)
(2634.05 -2.60511 0.0420191)
(2634.06 -2.62416 0.042022)
(2634.06 -2.64349 0.042025)
(2634.06 -2.66311 0.0420281)
(2634.06 -2.68302 0.0420312)
(2634.06 -2.70323 0.0420343)
(2634.06 -2.72374 0.0420375)
(2634.06 -2.74457 0.0420407)
(2634.06 -2.76572 0.042044)
(2634.06 -2.7872 0.0420473)
(2634.06 -2.80902 0.0420507)
(2634.06 -2.83118 0.0420541)
(2634.06 -2.85369 0.0420576)
(2634.08 -2.85353 -0.00015428)
(2634.04 -2.462 0.0420039)
(2634.04 -2.47901 0.0420066)
(2634.04 -2.49625 0.0420093)
(2634.04 -2.51374 0.0420121)
(2634.04 -2.53148 0.0420149)
(2634.04 -2.54946 0.0420177)
(2634.04 -2.56771 0.0420206)
(2634.04 -2.58621 0.0420235)
(2634.04 -2.60499 0.0420265)
(2634.04 -2.62404 0.0420295)
(2634.04 -2.64337 0.0420325)
(2634.04 -2.66299 0.0420356)
(2634.04 -2.6829 0.0420388)
(2634.04 -2.70311 0.042042)
(2634.04 -2.72363 0.0420452)
(2634.04 -2.74446 0.0420485)
(2634.04 -2.76562 0.0420519)
(2634.04 -2.7871 0.0420552)
(2634.04 -2.80892 0.0420587)
(2634.04 -2.83108 0.0420622)
(2634.04 -2.85359 0.0420657)
(2634.06 -2.85343 -0.000152061)
(2634.02 -2.4619 0.0420109)
(2634.02 -2.47891 0.0420137)
(2634.02 -2.49616 0.0420164)
(2634.02 -2.51365 0.0420193)
(2634.02 -2.53138 0.0420221)
(2634.02 -2.54937 0.042025)
(2634.02 -2.56762 0.0420279)
(2634.02 -2.58613 0.0420309)
(2634.02 -2.6049 0.0420339)
(2634.02 -2.62396 0.042037)
(2634.02 -2.64329 0.0420401)
(2634.02 -2.66291 0.0420433)
(2634.02 -2.68282 0.0420465)
(2634.02 -2.70304 0.0420497)
(2634.02 -2.72356 0.042053)
(2634.02 -2.74439 0.0420564)
(2634.02 -2.76555 0.0420598)
(2634.02 -2.78703 0.0420632)
(2634.02 -2.80885 0.0420667)
(2634.02 -2.83102 0.0420703)
(2634.02 -2.85354 0.0420739)
(2634.04 -2.85337 -0.000148673)
(2634 -2.4551 0.0420406)
(2634 -2.47206 0.0420436)
(2634 -2.48927 0.0420466)
(2634 -2.50671 0.0420496)
(2634 -2.5244 0.0420527)
(2634 -2.54234 0.0420558)
(2634 -2.56054 0.0420589)
(2634 -2.579 0.0420622)
(2634 -2.59773 0.0420654)
(2634 -2.61673 0.0420687)
(2634 -2.63602 0.0420721)
(2634 -2.65559 0.0420755)
(2634 -2.67545 0.0420789)
(2634 -2.69561 0.0420824)
(2634 -2.71608 0.042086)
(2634 -2.73686 0.0420896)
(2634 -2.75796 0.0420932)
(2634 -2.77939 0.042097)
(2634 -2.80115 0.0421007)
(2634 -2.82326 0.0421046)
(2634 -2.84572 0.0421085)
(2634.02 -2.8462 -0.000701597)
)
;

boundaryField
{
    inlet
    {
        type            calculated;
        value           uniform (0 0 0);
    }
    outlet2
    {
        type            calculated;
        value           uniform (0 0 0);
    }
    outlet1
    {
        type            calculated;
        value           uniform (0 0 0);
    }
    wall
    {
        type            calculated;
        value           uniform (0 0 0);
    }
    symmetryBottom
    {
        type            symmetry;
    }
    symmetryZ0
    {
        type            symmetry;
    }
    symmetryZ05
    {
        type            symmetry;
    }
}


// ************************************************************************* //
