/*--------------------------------*- C++ -*----------------------------------*\
| =========                 |                                                 |
| \\      /  F ield         | OpenFOAM: The Open Source CFD Toolbox           |
|  \\    /   O peration     | Version:  2412                                  |
|   \\  /    A nd           | Website:  www.openfoam.com                      |
|    \\/     M anipulation  |                                                 |
\*---------------------------------------------------------------------------*/
FoamFile
{
    version     2.0;
    format      ascii;
    arch        "LSB;label=32;scalar=64";
    class       volScalarField;
    location    "9.4e-06";
    object      rho_dof0;
}
// * * * * * * * * * * * * * * * * * * * * * * * * * * * * * * * * * * * * * //

dimensions      [0 0 0 0 0 0 0];

internalField   nonuniform List<scalar> 
84
(
3.36328e-05
2.00219e-06
4.81237e-06
3.36445e-05
2.02644e-06
4.61633e-06
3.36518e-05
2.02453e-06
4.64158e-06
3.3652e-05
2.02165e-06
4.66709e-06
3.36523e-05
2.01878e-06
4.69256e-06
3.36526e-05
2.01592e-06
4.71788e-06
3.36529e-05
2.01307e-06
4.74305e-06
3.36531e-05
2.01024e-06
4.76808e-06
3.36534e-05
2.00741e-06
4.79298e-06
3.36537e-05
2.0046e-06
4.81773e-06
3.3654e-05
2.00179e-06
4.84234e-06
3.36544e-05
1.99896e-06
4.86679e-06
1.65993e-05
1.55704e-05
1.47861e-05
1.77903e-05
1.66484e-05
1.58065e-05
1.76546e-05
1.65252e-05
1.57051e-05
1.75012e-05
1.63417e-05
1.65811e-05
1.4002e-05
1.73473e-05
1.62085e-05
1.63263e-05
1.54193e-05
1.71949e-05
1.60712e-05
1.61834e-05
1.53065e-05
1.70437e-05
1.5935e-05
1.60437e-05
1.51753e-05
1.68939e-05
1.57999e-05
1.59048e-05
1.50515e-05
1.67453e-05
1.56671e-05
1.57294e-05
1.58231e-05
1.42178e-05
1.65979e-05
1.55342e-05
1.55961e-05
1.56342e-05
1.47861e-05
1.64518e-05
1.54024e-05
1.54616e-05
1.54956e-05
1.46763e-05
1.6307e-05
1.52709e-05
1.53617e-05
1.45546e-05
)
;

boundaryField
{
    inlet
    {
        type            calculated;
        value           uniform 2.81085e-05;
    }
    outlet2
    {
        type            calculated;
        value           uniform 2.81085e-05;
    }
    outlet1
    {
        type            calculated;
        value           nonuniform List<scalar> 0();
    }
    wall
    {
        type            calculated;
        value           uniform 2.81085e-05;
    }
    symmetryBottom
    {
        type            symmetry;
    }
    symmetryZ0
    {
        type            symmetry;
    }
    symmetryZ05
    {
        type            symmetry;
    }
    procBoundary1to0
    {
        type            processor;
        value           uniform 2.81085e-05;
    }
}


// ************************************************************************* //
