/*--------------------------------*- C++ -*----------------------------------*\
| =========                 |                                                 |
| \\      /  F ield         | OpenFOAM: The Open Source CFD Toolbox           |
|  \\    /   O peration     | Version:  2412                                  |
|   \\  /    A nd           | Website:  www.openfoam.com                      |
|    \\/     M anipulation  |                                                 |
\*---------------------------------------------------------------------------*/
FoamFile
{
    version     2.0;
    format      ascii;
    arch        "LSB;label=32;scalar=64";
    class       volVectorField;
    location    "9.4e-06";
    object      U;
}
// * * * * * * * * * * * * * * * * * * * * * * * * * * * * * * * * * * * * * //

dimensions      [0 0 0 0 0 0 0];

internalField   nonuniform List<vector> 
84
(
(2640.83 0.00581477 -1.1414e-16)
(2509.92 -0.227444 1.28888e-14)
(2601.27 0.0316666 -2.55548e-14)
(2640.83 -7.91283 -1.20766e-16)
(2511.8 -12.7957 1.34244e-14)
(2598.61 -9.72034 -2.79066e-14)
(2640.83 -7.91285 1.58652e-16)
(2511.59 -12.8251 -1.76246e-14)
(2598.92 -9.61559 3.61586e-14)
(2640.83 -7.91311 -2.07177e-16)
(2511.36 -12.8311 2.30599e-14)
(2599.26 -9.61259 -4.75362e-14)
(2640.83 -7.91312 -3.67662e-16)
(2511.13 -12.8364 4.06149e-14)
(2599.59 -9.61071 -8.12215e-14)
(2640.83 -7.91313 2.01367e-16)
(2510.89 -12.8417 -2.23106e-14)
(2599.91 -9.60861 4.47448e-14)
(2640.83 -7.91314 -2.69904e-16)
(2510.66 -12.847 3.01091e-14)
(2600.23 -9.60653 -6.00256e-14)
(2640.83 -7.91314 -3.13229e-16)
(2510.43 -12.8522 3.49707e-14)
(2600.55 -9.60448 -6.96229e-14)
(2640.83 -7.91315 1.16506e-16)
(2510.2 -12.8575 -1.2975e-14)
(2600.85 -9.60249 2.53889e-14)
(2640.83 -7.91316 -2.66671e-16)
(2509.97 -12.8627 3.01973e-14)
(2601.16 -9.6005 -6.01729e-14)
(2640.83 -7.91317 -6.90641e-16)
(2509.74 -12.868 7.7908e-14)
(2601.46 -9.59856 -1.52753e-13)
(2640.83 -7.92013 2.4412e-19)
(2509.5 -12.6733 -7.7342e-17)
(2601.75 -9.53436 4.62844e-16)
(2628.43 -0.189896 -1.41447e-16)
(2626.5 -0.191623 1.24449e-14)
(2624.33 -0.193752 -1.7583e-15)
(2630 -9.40416 -1.01173e-16)
(2628.02 -9.57638 1.18461e-14)
(2625.86 -9.52776 -1.91034e-15)
(2629.89 -9.57833 -6.49557e-16)
(2627.91 -9.74324 -4.06524e-15)
(2625.81 -9.81907 -1.77281e-14)
(2629.75 -9.58359 1.27581e-15)
(2627.62 -9.69888 -2.27863e-16)
(2628.21 -10.707 -1.7444e-15)
(2623.29 3.59269 2.73342e-14)
(2629.6 -9.58378 -2.92301e-15)
(2627.5 -9.73849 1.37073e-16)
(2627.84 -9.91121 -1.7158e-15)
(2625.46 -9.6067 2.17955e-14)
(2629.46 -9.58515 -4.22874e-16)
(2627.37 -9.74091 -1.20189e-14)
(2627.7 -9.89161 -4.50301e-16)
(2625.35 -9.83761 1.49704e-14)
(2629.32 -9.58656 1.65685e-15)
(2627.23 -9.74223 -2.43716e-16)
(2627.56 -9.8927 -1.04874e-16)
(2625.22 -9.84223 -7.48527e-18)
(2629.17 -9.58796 2.94911e-15)
(2627.1 -9.74369 -1.33191e-14)
(2627.42 -9.88941 1.27414e-14)
(2625.1 -9.95357 7.20236e-17)
(2629.03 -9.58932 5.95491e-16)
(2626.97 -9.74701 -1.67715e-14)
(2627.14 -9.8394 -1.76328e-14)
(2627.39 -10.9139 1.0306e-14)
(2623.91 3.46096 1.2772e-13)
(2628.88 -9.59076 3.14679e-15)
(2626.83 -9.74688 -1.91058e-14)
(2627.01 -9.88218 1.15611e-14)
(2627.14 -10.0491 2.75762e-14)
(2624.8 -9.88694 2.01014e-14)
(2628.74 -9.59218 4.65175e-15)
(2626.69 -9.74806 -3.09002e-16)
(2626.87 -9.8877 1.26137e-18)
(2626.99 -9.95766 1.28683e-15)
(2624.71 -11.1135 -1.63191e-14)
(2628.59 -9.59169 -1.36002e-15)
(2626.55 -9.74498 1.88081e-14)
(2626.86 -9.83761 8.86103e-16)
(2624.58 -11.1328 -3.19282e-14)
)
;

boundaryField
{
    inlet
    {
        type            calculated;
        value           uniform (0 0 0);
    }
    outlet2
    {
        type            calculated;
        value           uniform (0 0 0);
    }
    outlet1
    {
        type            calculated;
        value           nonuniform List<vector> 0();
    }
    wall
    {
        type            calculated;
        value           uniform (0 0 0);
    }
    symmetryBottom
    {
        type            symmetry;
    }
    symmetryZ0
    {
        type            symmetry;
    }
    symmetryZ05
    {
        type            symmetry;
    }
    procBoundary1to0
    {
        type            processor;
        value           uniform (0 0 0);
    }
}


// ************************************************************************* //
