/*--------------------------------*- C++ -*----------------------------------*\
| =========                 |                                                 |
| \\      /  F ield         | OpenFOAM: The Open Source CFD Toolbox           |
|  \\    /   O peration     | Version:  2412                                  |
|   \\  /    A nd           | Website:  www.openfoam.com                      |
|    \\/     M anipulation  |                                                 |
\*---------------------------------------------------------------------------*/
FoamFile
{
    version     2.0;
    format      ascii;
    arch        "LSB;label=32;scalar=64";
    class       volScalarField;
    location    "4.4e-06";
    object      E;
}
// * * * * * * * * * * * * * * * * * * * * * * * * * * * * * * * * * * * * * //

dimensions      [0 0 0 0 0 0 0];

internalField   nonuniform List<scalar> 
84
(
99.435
40.2696
49.9542
99.4527
40.2901
49.9726
99.4482
40.2875
49.9696
99.4482
40.2875
49.9696
99.4482
40.2875
49.9696
99.4482
40.2875
49.9696
99.4482
40.2875
49.9696
99.4482
40.2875
49.9696
99.4482
40.2875
49.9696
99.4482
40.2875
49.9696
99.4482
40.2875
49.9696
99.4484
40.2828
49.9666
76.7067
74.566
74.9963
79.9263
77.5667
78.0198
79.5912
77.2541
77.7025
79.2571
76.9428
77.0951
74.4336
78.924
76.6323
76.7787
77.1107
78.593
76.3236
76.4642
76.7952
78.2695
76.0218
76.1566
76.4867
77.9524
75.7257
75.855
76.1828
77.6631
75.4538
75.5781
75.5891
74.536
77.2515
75.0751
75.1919
75.1971
75.5267
76.9431
74.7867
74.8981
74.8999
75.2956
76.6286
74.4929
74.599
74.9236
)
;

boundaryField
{
    inlet
    {
        type            calculated;
        value           uniform 0;
    }
    outlet2
    {
        type            calculated;
        value           uniform 0;
    }
    outlet1
    {
        type            calculated;
        value           nonuniform List<scalar> 0();
    }
    wall
    {
        type            calculated;
        value           uniform 0;
    }
    symmetryBottom
    {
        type            symmetry;
    }
    symmetryZ0
    {
        type            symmetry;
    }
    symmetryZ05
    {
        type            symmetry;
    }
    procBoundary1to0
    {
        type            processor;
        value           uniform 0;
    }
}


// ************************************************************************* //
