/*--------------------------------*- C++ -*----------------------------------*\
| =========                 |                                                 |
| \\      /  F ield         | OpenFOAM: The Open Source CFD Toolbox           |
|  \\    /   O peration     | Version:  2412                                  |
|   \\  /    A nd           | Website:  www.openfoam.com                      |
|    \\/     M anipulation  |                                                 |
\*---------------------------------------------------------------------------*/
FoamFile
{
    version     2.0;
    format      ascii;
    arch        "LSB;label=32;scalar=64";
    class       volVectorField;
    location    "4.4e-06";
    object      rhoU_dof0;
}
// * * * * * * * * * * * * * * * * * * * * * * * * * * * * * * * * * * * * * //

dimensions      [0 0 0 0 0 0 0];

internalField   nonuniform List<vector> 
84
(
(0.0741082 -3.23449e-07 0)
(0.0302241 -5.26157e-07 0)
(0.0373692 -4.36544e-07 -1.11638e-19)
(0.0741214 -0.000103705 0)
(0.0302395 -5.35409e-05 0)
(0.0373829 -6.26673e-05 -1.08512e-19)
(0.074118 -0.000103381 0)
(0.0302376 -5.33614e-05 0)
(0.0373808 -6.24609e-05 1.47541e-19)
(0.074118 -0.000103381 0)
(0.0302376 -5.33613e-05 0)
(0.0373808 -6.24609e-05 -1.88983e-19)
(0.074118 -0.000103381 0)
(0.0302376 -5.33613e-05 0)
(0.0373808 -6.24609e-05 -3.00574e-19)
(0.074118 -0.000103381 0)
(0.0302376 -5.33613e-05 0)
(0.0373808 -6.24609e-05 1.85013e-19)
(0.074118 -0.000103381 0)
(0.0302376 -5.33613e-05 0)
(0.0373808 -6.24609e-05 -2.22552e-19)
(0.074118 -0.000103381 0)
(0.0302376 -5.33613e-05 0)
(0.0373808 -6.24609e-05 -2.5608e-19)
(0.074118 -0.000103381 0)
(0.0302376 -5.33613e-05 0)
(0.0373808 -6.24609e-05 1.08497e-19)
(0.074118 -0.000103381 0)
(0.0302376 -5.33613e-05 0)
(0.0373808 -6.24609e-05 -2.20246e-19)
(0.074118 -0.000103381 0)
(0.0302375 -5.33592e-05 0)
(0.0373808 -6.24595e-05 -5.68396e-19)
(0.0741182 -0.000103394 0)
(0.0302341 -5.30236e-05 0)
(0.0373785 -6.22404e-05 0)
(0.0572509 0.000100748 8.66966e-21)
(0.0556705 9.39262e-05 1.08154e-19)
(0.0559889 9.46334e-05 1.10154e-20)
(0.0596346 -0.000101587 8.35293e-21)
(0.0578931 -0.000100173 1.16089e-19)
(0.0582283 -0.000100615 -2.33576e-21)
(0.059386 -0.000101196 -1.20089e-20)
(0.0576611 -9.97913e-05 -5.35951e-20)
(0.0579928 -0.000100154 -2.16896e-19)
(0.0591383 -0.000100797 1.54063e-20)
(0.0574301 -9.94118e-05 -2.53135e-21)
(0.0575422 -0.000101004 1.40236e-22)
(0.0555678 5.2986e-06 1.72225e-19)
(0.0588912 -0.00010042 -3.29938e-20)
(0.0571997 -9.90534e-05 5.80842e-22)
(0.0573074 -0.000100634 -1.77469e-21)
(0.0575537 -0.000100945 1.81318e-19)
(0.0586438 -9.5686e-05 -1.5148e-20)
(0.0569689 -9.4655e-05 -1.13182e-19)
(0.0570722 -9.6166e-05 4.87404e-21)
(0.0573178 -9.64644e-05 1.20214e-19)
(0.0583955 -7.57466e-05 1.83553e-20)
(0.0567373 -7.60164e-05 -1.42961e-21)
(0.0568363 -7.7169e-05 -2.9996e-22)
(0.0570811 -7.74112e-05 -9.53745e-22)
(0.0581516 -6.32578e-05 2.28901e-20)
(0.0565097 -6.43319e-05 -1.13599e-19)
(0.0566044 -6.52699e-05 1.21029e-19)
(0.0568475 -6.54188e-05 1.46014e-21)
(0.0578991 -5.59122e-05 -8.41781e-21)
(0.0562735 -5.74474e-05 -1.70296e-19)
(0.0563638 -5.82386e-05 -1.59707e-19)
(0.0563711 -5.90922e-05 1.9274e-19)
(0.0556485 5.60861e-06 1.04053e-18)
(0.0576752 -5.49351e-05 1.95224e-20)
(0.0560665 -5.65222e-05 -1.66659e-19)
(0.0561528 -5.72725e-05 1.2259e-19)
(0.0561571 -5.80907e-05 2.48795e-19)
(0.0564023 -5.85566e-05 1.52699e-19)
(0.0574283 -6.26102e-05 4.74448e-20)
(0.0558358 -6.36644e-05 -2.20881e-21)
(0.0559178 -6.45544e-05 2.87293e-22)
(0.0559192 -6.55371e-05 -2.26959e-22)
(0.0562126 -6.93616e-05 -1.77609e-19)
(0.0571911 -7.59047e-05 1.23731e-22)
(0.0556143 -7.60216e-05 1.63297e-19)
(0.0556922 -7.71365e-05 -1.16348e-20)
(0.055933 -7.73531e-05 -2.48236e-19)
)
;

boundaryField
{
    inlet
    {
        type            calculated;
        value           uniform (0.0741049 0 0);
    }
    outlet2
    {
        type            calculated;
        value           uniform (0.0741049 0 0);
    }
    outlet1
    {
        type            calculated;
        value           nonuniform List<vector> 0();
    }
    wall
    {
        type            calculated;
        value           uniform (0.0741049 0 0);
    }
    symmetryBottom
    {
        type            symmetry;
    }
    symmetryZ0
    {
        type            symmetry;
    }
    symmetryZ05
    {
        type            symmetry;
    }
    procBoundary1to0
    {
        type            processor;
        value           uniform (0.0741049 0 0);
    }
}


// ************************************************************************* //
