/*--------------------------------*- C++ -*----------------------------------*\
| =========                 |                                                 |
| \\      /  F ield         | OpenFOAM: The Open Source CFD Toolbox           |
|  \\    /   O peration     | Version:  2412                                  |
|   \\  /    A nd           | Website:  www.openfoam.com                      |
|    \\/     M anipulation  |                                                 |
\*---------------------------------------------------------------------------*/
FoamFile
{
    version     2.0;
    format      ascii;
    arch        "LSB;label=32;scalar=64";
    class       volVectorField;
    location    "4.4e-06";
    object      U;
}
// * * * * * * * * * * * * * * * * * * * * * * * * * * * * * * * * * * * * * //

dimensions      [0 0 0 0 0 0 0];

internalField   nonuniform List<vector> 
84
(
(2636.39 -0.0115067 0)
(2617.36 -0.0455643 0)
(2626.23 -0.0306794 -7.84566e-15)
(2636.39 -3.68862 0)
(2617.37 -4.63421 0)
(2626.23 -4.40251 -7.6232e-15)
(2636.39 -3.67726 0)
(2617.37 -4.61896 0)
(2626.23 -4.38827 1.03657e-14)
(2636.39 -3.67726 0)
(2617.37 -4.61896 0)
(2626.23 -4.38827 -1.32772e-14)
(2636.39 -3.67726 0)
(2617.37 -4.61896 0)
(2626.23 -4.38827 -2.11172e-14)
(2636.39 -3.67726 0)
(2617.37 -4.61896 0)
(2626.23 -4.38827 1.29983e-14)
(2636.39 -3.67726 0)
(2617.37 -4.61896 0)
(2626.23 -4.38827 -1.56356e-14)
(2636.39 -3.67726 0)
(2617.37 -4.61896 0)
(2626.23 -4.38827 -1.79912e-14)
(2636.39 -3.67726 0)
(2617.37 -4.61896 0)
(2626.23 -4.38827 7.62262e-15)
(2636.39 -3.67726 0)
(2617.37 -4.61896 0)
(2626.23 -4.38826 -1.54736e-14)
(2636.39 -3.67727 0)
(2617.37 -4.61877 0)
(2626.23 -4.38816 -3.99333e-14)
(2636.39 -3.67774 0)
(2617.36 -4.59025 0)
(2626.23 -4.37304 0)
(2631.81 4.63136 3.98542e-16)
(2630.99 4.43895 5.11135e-15)
(2631.13 4.44717 5.17654e-16)
(2633.35 -4.48587 3.68849e-16)
(2632.45 -4.55495 5.27869e-15)
(2632.59 -4.54898 -1.05604e-16)
(2633.28 -4.48723 -5.32494e-16)
(2632.39 -4.55575 -2.44676e-15)
(2632.53 -4.54639 -9.84579e-15)
(2633.21 -4.48811 6.85985e-16)
(2632.33 -4.55657 -1.16025e-16)
(2632.4 -4.62068 6.41544e-18)
(2631.82 0.250954 8.15698e-15)
(2633.14 -4.48999 -1.47522e-15)
(2632.26 -4.55832 2.67297e-17)
(2632.34 -4.6225 -8.1518e-17)
(2632.41 -4.61703 8.29318e-15)
(2633.05 -4.29621 -6.80131e-16)
(2632.18 -4.37341 -5.22945e-15)
(2632.25 -4.43531 2.24797e-16)
(2632.32 -4.43013 5.52081e-15)
(2632.9 -3.41521 8.27593e-16)
(2632.02 -3.52637 -6.63189e-17)
(2632.1 -3.57371 -1.38912e-17)
(2632.17 -3.56964 -4.39798e-17)
(2632.8 -2.86398 1.03634e-15)
(2631.92 -2.99623 -5.29085e-15)
(2631.99 -3.03491 5.62758e-15)
(2632.06 -3.02891 6.76051e-17)
(2632.69 -2.54235 -3.82761e-16)
(2631.78 -2.68668 -7.96432e-15)
(2631.85 -2.71939 -7.45736e-15)
(2631.85 -2.75889 8.99861e-15)
(2631.8 0.265249 4.92103e-14)
(2632.74 -2.50766 8.91155e-16)
(2631.92 -2.65331 -7.82344e-15)
(2631.98 -2.68447 5.74601e-15)
(2631.98 -2.7226 1.16606e-14)
(2632.06 -2.73259 7.1258e-15)
(2632.69 -2.87025 2.17502e-15)
(2631.85 -3.00086 -1.04114e-16)
(2631.92 -3.03842 1.35222e-17)
(2631.91 -3.08459 -1.06821e-17)
(2632 -3.24767 -8.31605e-15)
(2632.65 -3.49408 5.69566e-18)
(2631.81 -3.59754 7.72763e-15)
(2631.88 -3.64528 -5.4983e-16)
(2631.95 -3.63987 -1.16808e-14)
)
;

boundaryField
{
    inlet
    {
        type            calculated;
        value           uniform (0 0 0);
    }
    outlet2
    {
        type            calculated;
        value           uniform (0 0 0);
    }
    outlet1
    {
        type            calculated;
        value           nonuniform List<vector> 0();
    }
    wall
    {
        type            calculated;
        value           uniform (0 0 0);
    }
    symmetryBottom
    {
        type            symmetry;
    }
    symmetryZ0
    {
        type            symmetry;
    }
    symmetryZ05
    {
        type            symmetry;
    }
    procBoundary1to0
    {
        type            processor;
        value           uniform (0 0 0);
    }
}


// ************************************************************************* //
