/*--------------------------------*- C++ -*----------------------------------*\
| =========                 |                                                 |
| \\      /  F ield         | OpenFOAM: The Open Source CFD Toolbox           |
|  \\    /   O peration     | Version:  2412                                  |
|   \\  /    A nd           | Website:  www.openfoam.com                      |
|    \\/     M anipulation  |                                                 |
\*---------------------------------------------------------------------------*/
FoamFile
{
    version     2.0;
    format      ascii;
    arch        "LSB;label=32;scalar=64";
    class       volScalarField;
    location    "1.3e-06";
    object      E;
}
// * * * * * * * * * * * * * * * * * * * * * * * * * * * * * * * * * * * * * //

dimensions      [0 0 0 0 0 0 0];

internalField   nonuniform List<scalar> 
84
(
99.431
79.7152
80.6566
99.4327
79.7205
80.6615
99.4322
79.7201
80.6611
99.4322
79.7201
80.6611
99.4322
79.7201
80.6611
99.4322
79.7201
80.6611
99.4322
79.7201
80.6611
99.4322
79.7201
80.6611
99.4322
79.7201
80.6611
99.4322
79.7201
80.6611
99.4322
79.7201
80.6611
99.4323
79.7185
80.6597
91.5659
91.3412
91.4554
92.6578
92.4257
92.5411
92.5465
92.3151
92.4302
92.4353
92.2047
92.2203
91.3136
92.3242
92.0943
92.1083
92.222
92.2139
91.9848
91.9972
92.1108
92.1061
91.8776
91.8885
92.002
91.9993
91.7715
91.7808
91.894
91.9038
91.6765
91.6844
91.6896
91.3229
91.7602
91.5343
91.5402
91.5433
91.6575
91.6578
91.4325
91.4369
91.4386
91.5583
91.5497
91.325
91.3279
91.4408
)
;

boundaryField
{
    inlet
    {
        type            calculated;
        value           uniform 0;
    }
    outlet2
    {
        type            calculated;
        value           uniform 0;
    }
    outlet1
    {
        type            calculated;
        value           nonuniform List<scalar> 0();
    }
    wall
    {
        type            calculated;
        value           uniform 0;
    }
    symmetryBottom
    {
        type            symmetry;
    }
    symmetryZ0
    {
        type            symmetry;
    }
    symmetryZ05
    {
        type            symmetry;
    }
    procBoundary1to0
    {
        type            processor;
        value           uniform 0;
    }
}


// ************************************************************************* //
