/*--------------------------------*- C++ -*----------------------------------*\
| =========                 |                                                 |
| \\      /  F ield         | OpenFOAM: The Open Source CFD Toolbox           |
|  \\    /   O peration     | Version:  2412                                  |
|   \\  /    A nd           | Website:  www.openfoam.com                      |
|    \\/     M anipulation  |                                                 |
\*---------------------------------------------------------------------------*/
FoamFile
{
    version     2.0;
    format      ascii;
    arch        "LSB;label=32;scalar=64";
    class       volScalarField;
    location    "4.6e-06";
    object      rho;
}
// * * * * * * * * * * * * * * * * * * * * * * * * * * * * * * * * * * * * * //

dimensions      [0 0 0 0 0 0 0];

internalField   nonuniform List<scalar> 
84
(
2.77355e-05
2.04024e-05
2.09467e-05
2.09211e-05
2.09229e-05
2.09238e-05
2.09247e-05
2.10308e-05
2.89059e-05
2.12829e-05
2.18625e-05
2.18498e-05
2.1866e-05
2.18818e-05
2.1898e-05
2.20077e-05
2.87042e-05
2.12631e-05
2.17591e-05
2.17521e-05
2.17664e-05
2.17805e-05
2.17951e-05
2.19045e-05
2.86111e-05
2.11111e-05
2.16813e-05
2.16663e-05
2.16798e-05
2.16927e-05
2.18017e-05
2.85535e-05
2.10142e-05
2.1584e-05
2.15674e-05
2.15793e-05
2.15906e-05
2.16992e-05
2.84295e-05
2.09206e-05
2.14866e-05
2.14686e-05
2.14789e-05
2.14885e-05
2.15968e-05
2.83052e-05
2.08276e-05
2.13895e-05
2.137e-05
2.13788e-05
2.13867e-05
2.14946e-05
2.81411e-05
2.07764e-05
2.129e-05
2.12732e-05
2.12801e-05
2.12865e-05
2.1394e-05
2.80266e-05
2.0646e-05
2.11986e-05
2.11765e-05
2.11821e-05
2.12892e-05
2.79488e-05
2.05576e-05
2.11091e-05
2.10857e-05
2.109e-05
2.11967e-05
2.78022e-05
2.04644e-05
2.10098e-05
2.0985e-05
2.09876e-05
2.1094e-05
2.75668e-05
2.03948e-05
2.0913e-05
2.08887e-05
2.08898e-05
2.08899e-05
2.09959e-05
)
;

boundaryField
{
    inlet
    {
        type            calculated;
        value           nonuniform List<scalar> 0();
    }
    outlet2
    {
        type            calculated;
        value           uniform 0;
    }
    outlet1
    {
        type            calculated;
        value           uniform 0;
    }
    wall
    {
        type            calculated;
        value           uniform 0;
    }
    symmetryBottom
    {
        type            symmetry;
    }
    symmetryZ0
    {
        type            symmetry;
    }
    symmetryZ05
    {
        type            symmetry;
    }
    procBoundary0to1
    {
        type            processor;
        value           uniform 0;
    }
}


// ************************************************************************* //
