/*--------------------------------*- C++ -*----------------------------------*\
| =========                 |                                                 |
| \\      /  F ield         | OpenFOAM: The Open Source CFD Toolbox           |
|  \\    /   O peration     | Version:  2412                                  |
|   \\  /    A nd           | Website:  www.openfoam.com                      |
|    \\/     M anipulation  |                                                 |
\*---------------------------------------------------------------------------*/
FoamFile
{
    version     2.0;
    format      ascii;
    arch        "LSB;label=32;scalar=64";
    class       volVectorField;
    location    "4.6e-06";
    object      rhoU;
}
// * * * * * * * * * * * * * * * * * * * * * * * * * * * * * * * * * * * * * //

dimensions      [0 0 0 0 0 0 0];

internalField   nonuniform List<vector> 
84
(
(0.0730837 0.000132018 1.31547e-19)
(0.0536566 9.89243e-05 -1.32645e-19)
(0.0551068 0.000102961 -2.58327e-19)
(0.0550379 0.000104344 1.45303e-19)
(0.0550425 0.000105903 -1.39953e-20)
(0.0550445 0.000107504 1.74984e-20)
(0.0550467 0.000109154 2.44766e-19)
(0.0553276 0.000109576 3.9323e-20)
(0.0762122 -0.000139877 1.35331e-19)
(0.0560067 -0.00010611 -1.32221e-19)
(0.0575517 -0.000110241 -3.19594e-19)
(0.0575173 -0.000111864 3.00245e-20)
(0.0575603 -0.000113656 -6.01355e-19)
(0.0576019 -0.000115502 1.18204e-19)
(0.0576449 -0.000117409 4.78907e-19)
(0.0579357 -0.000117835 9.63823e-20)
(0.0756762 -0.000128631 -5.6803e-19)
(0.0559557 -0.000114984 1.02239e-19)
(0.0572776 -0.00010892 1.82905e-19)
(0.0572586 -0.000111428 -1.58977e-20)
(0.0572965 -0.000113158 -6.78497e-21)
(0.0573338 -0.00011499 2.40924e-19)
(0.0573724 -0.000116881 -2.13855e-19)
(0.0576622 -0.000117306 -2.35129e-19)
(0.0754294 -0.00013257 -5.52508e-19)
(0.0555519 -0.000107136 2.59101e-19)
(0.057072 -0.000111014 -2.21061e-20)
(0.0570312 -0.000112663 -5.3733e-19)
(0.057067 -0.000114482 5.19324e-19)
(0.0571012 -0.000116356 9.59582e-20)
(0.0573899 -0.000116779 -2.10133e-19)
(0.0752775 -0.000140426 -3.36657e-19)
(0.0552952 -0.000106296 -9.55344e-20)
(0.0568143 -0.000110577 8.00972e-21)
(0.0567694 -0.000112197 2.45316e-21)
(0.056801 -0.000114002 -1.93889e-19)
(0.0568308 -0.00011586 1.47187e-19)
(0.0571185 -0.000116283 3.3593e-19)
(0.0749481 -0.000134479 -2.03451e-19)
(0.055047 -0.000101646 2.84663e-19)
(0.0565559 -0.000105784 -2.31634e-20)
(0.0565072 -0.000107351 3.44023e-19)
(0.0565345 -0.000109097 -3.10324e-19)
(0.05656 -0.000110896 2.66148e-19)
(0.0568467 -0.000111302 -5.77418e-19)
(0.0746163 -0.000107867 -6.12109e-23)
(0.0547986 -8.15799e-05 2.7426e-19)
(0.0562965 -8.48361e-05 -2.26348e-20)
(0.056244 -8.60913e-05 1.22065e-22)
(0.0562671 -8.74833e-05 2.85332e-19)
(0.0562882 -8.89177e-05 3.89201e-20)
(0.0565739 -8.9245e-05 2.84743e-19)
(0.0741802 -8.23238e-05 3.80981e-21)
(0.0546625 -7.63603e-05 2.70465e-21)
(0.056032 -7.1121e-05 -1.24937e-21)
(0.0559864 -7.29002e-05 -2.95762e-21)
(0.0560049 -7.40483e-05 -6.18964e-22)
(0.0560217 -7.52705e-05 1.25497e-21)
(0.0563065 -7.55477e-05 -2.4549e-19)
(0.073875 -7.78409e-05 7.13666e-19)
(0.0543149 -6.25818e-05 -5.28515e-20)
(0.0557883 -6.49073e-05 -5.94546e-19)
(0.0557286 -6.58673e-05 -2.0911e-19)
(0.0557435 -6.69303e-05 3.2033e-19)
(0.0560272 -6.718e-05 -2.38863e-20)
(0.0736716 -8.11844e-05 -2.56204e-19)
(0.0540862 -6.11237e-05 1.89197e-20)
(0.0555559 -6.3611e-05 -2.74829e-19)
(0.055493 -6.45108e-05 2.99114e-19)
(0.0555044 -6.5518e-05 5.04852e-19)
(0.0557871 -6.57658e-05 -4.41891e-20)
(0.0732841 -8.66189e-05 -3.58496e-19)
(0.0538393 -6.94252e-05 2.5619e-20)
(0.055293 -7.17436e-05 -7.09146e-22)
(0.0552265 -7.27946e-05 5.25149e-19)
(0.0552335 -7.39408e-05 5.45353e-19)
(0.0555152 -7.42195e-05 2.47499e-20)
(0.0726613 -1.00524e-05 -2.12694e-20)
(0.0536553 -9.08719e-05 1.06733e-21)
(0.0550373 -8.38135e-05 -3.80781e-23)
(0.0549721 -8.56205e-05 3.23054e-19)
(0.0549749 -8.69134e-05 -2.66577e-20)
(0.0549754 -8.82717e-05 1.34875e-21)
(0.0552562 -8.86078e-05 -2.77374e-19)
)
;

boundaryField
{
    inlet
    {
        type            calculated;
        value           nonuniform List<vector> 0();
    }
    outlet2
    {
        type            calculated;
        value           uniform (0 0 0);
    }
    outlet1
    {
        type            calculated;
        value           uniform (0 0 0);
    }
    wall
    {
        type            calculated;
        value           uniform (0 0 0);
    }
    symmetryBottom
    {
        type            symmetry;
    }
    symmetryZ0
    {
        type            symmetry;
    }
    symmetryZ05
    {
        type            symmetry;
    }
    procBoundary0to1
    {
        type            processor;
        value           uniform (0 0 0);
    }
}


// ************************************************************************* //
