/*--------------------------------*- C++ -*----------------------------------*\
| =========                 |                                                 |
| \\      /  F ield         | OpenFOAM: The Open Source CFD Toolbox           |
|  \\    /   O peration     | Version:  2412                                  |
|   \\  /    A nd           | Website:  www.openfoam.com                      |
|    \\/     M anipulation  |                                                 |
\*---------------------------------------------------------------------------*/
FoamFile
{
    version     2.0;
    format      ascii;
    arch        "LSB;label=32;scalar=64";
    class       volScalarField;
    location    "4.6e-06";
    object      T;
}
// * * * * * * * * * * * * * * * * * * * * * * * * * * * * * * * * * * * * * //

dimensions      [0 0 0 0 0 0 0];

internalField   nonuniform List<scalar> 
84
(
202.793
202.841
202.911
202.951
202.997
203.044
203.092
203.089
199.986
199.974
200.001
199.998
199.998
199.998
199.998
199.998
199.973
199.975
200.001
199.998
199.998
199.998
199.998
199.998
199.989
199.973
200.001
199.998
199.998
199.998
199.998
199.99
199.975
200.004
200.001
200.001
200.001
200.002
200.433
200.445
200.475
200.477
200.483
200.488
200.487
202.496
202.575
202.633
202.67
202.711
202.753
202.75
204.343
204.629
204.659
204.734
204.809
204.886
204.879
211.743
213.088
213.227
213.455
213.688
213.664
195.051
194.924
194.88
194.793
194.708
194.715
198.75
198.777
198.78
198.757
198.737
198.739
199.898
199.455
199.498
199.486
199.478
199.47
199.471
)
;

boundaryField
{
    inlet
    {
        type            calculated;
        value           nonuniform List<scalar> 0();
    }
    outlet2
    {
        type            calculated;
        value           uniform 0;
    }
    outlet1
    {
        type            calculated;
        value           uniform 0;
    }
    wall
    {
        type            calculated;
        value           uniform 0;
    }
    symmetryBottom
    {
        type            symmetry;
    }
    symmetryZ0
    {
        type            symmetry;
    }
    symmetryZ05
    {
        type            symmetry;
    }
    procBoundary0to1
    {
        type            processor;
        value           uniform 0;
    }
}


// ************************************************************************* //
