/*--------------------------------*- C++ -*----------------------------------*\
| =========                 |                                                 |
| \\      /  F ield         | OpenFOAM: The Open Source CFD Toolbox           |
|  \\    /   O peration     | Version:  2412                                  |
|   \\  /    A nd           | Website:  www.openfoam.com                      |
|    \\/     M anipulation  |                                                 |
\*---------------------------------------------------------------------------*/
FoamFile
{
    version     2.0;
    format      ascii;
    arch        "LSB;label=32;scalar=64";
    class       volVectorField;
    location    "6.1e-06";
    object      rhoU_dof0;
}
// * * * * * * * * * * * * * * * * * * * * * * * * * * * * * * * * * * * * * //

dimensions      [0 0 0 0 0 0 0];

internalField   nonuniform List<vector> 
84
(
(0.0741107 -5.80747e-07 0)
(0.0170082 -6.51819e-07 0)
(0.0296643 -5.42979e-07 -1.21794e-19)
(0.0741341 -0.000134568 0)
(0.017027 -4.58827e-05 0)
(0.0296822 -6.82763e-05 -1.18665e-19)
(0.0741282 -0.000134003 0)
(0.0170247 -4.56649e-05 0)
(0.029679 -6.79685e-05 1.6003e-19)
(0.0741282 -0.000134003 0)
(0.0170247 -4.56648e-05 0)
(0.029679 -6.79684e-05 -2.13253e-19)
(0.0741282 -0.000134003 0)
(0.0170247 -4.56648e-05 0)
(0.029679 -6.79684e-05 -3.22455e-19)
(0.0741282 -0.000134003 0)
(0.0170247 -4.56648e-05 0)
(0.029679 -6.79684e-05 2.09215e-19)
(0.0741282 -0.000134003 0)
(0.0170247 -4.56648e-05 0)
(0.029679 -6.79684e-05 -2.31987e-19)
(0.0741282 -0.000134003 0)
(0.0170247 -4.56648e-05 0)
(0.029679 -6.79684e-05 -2.65473e-19)
(0.0741282 -0.000134003 0)
(0.0170247 -4.56648e-05 0)
(0.029679 -6.79684e-05 1.20197e-19)
(0.0741282 -0.000134003 0)
(0.0170247 -4.56648e-05 0)
(0.029679 -6.79684e-05 -2.32846e-19)
(0.0741282 -0.000134003 0)
(0.0170246 -4.5661e-05 0)
(0.0296789 -6.79664e-05 -6.30159e-19)
(0.0741284 -0.00013402 0)
(0.0170204 -4.52468e-05 0)
(0.0296768 -6.77538e-05 0)
(0.0524538 0.000128415 1.46293e-20)
(0.0497865 0.000114949 1.4027e-19)
(0.0502826 0.000116557 1.44508e-20)
(0.0555301 -0.000131157 1.40849e-20)
(0.0525405 -0.000126129 1.52015e-19)
(0.0530753 -0.000127158 -4.12632e-21)
(0.0552056 -0.000130445 -1.97397e-20)
(0.0522497 -0.000125456 -7.2057e-20)
(0.0527772 -0.000126334 -2.39594e-19)
(0.0548826 -0.000129714 2.55015e-20)
(0.0519606 -0.000124789 -4.08931e-21)
(0.0522034 -0.00012711 2.96796e-22)
(0.0496656 9.51158e-06 2.10593e-19)
(0.0545608 -0.000129027 -3.35264e-20)
(0.0516725 -0.00012416 1.09323e-21)
(0.0519083 -0.000126457 -2.29571e-21)
(0.0522191 -0.000127005 2.12552e-19)
(0.0542385 -0.000123331 -2.50862e-20)
(0.051384 -0.000119097 -1.46313e-19)
(0.0516127 -0.000121295 1.04499e-20)
(0.0519223 -0.000121824 1.58123e-19)
(0.0539151 -9.70824e-05 2.94573e-20)
(0.0510943 -9.55129e-05 -3.13365e-21)
(0.051316 -9.71338e-05 4.76579e-23)
(0.0516244 -9.75641e-05 -1.26229e-21)
(0.0535991 -8.10243e-05 3.60059e-20)
(0.0508111 -8.10523e-05 -1.48093e-19)
(0.0510261 -8.23403e-05 1.64605e-19)
(0.0513313 -8.26029e-05 2.36998e-21)
(0.0532664 -7.07393e-05 -1.41848e-20)
(0.0505121 -7.17825e-05 -2.08188e-19)
(0.0507199 -7.28174e-05 -1.99075e-19)
(0.0507228 -7.389e-05 2.26093e-19)
(0.0498104 1.00208e-05 1.25934e-18)
(0.0529867 -6.86289e-05 3.09517e-20)
(0.0502645 -6.98778e-05 -2.11758e-19)
(0.0504662 -7.08238e-05 1.59027e-19)
(0.0504655 -7.18302e-05 2.79671e-19)
(0.0507779 -7.26945e-05 1.89262e-19)
(0.0526642 -7.87649e-05 7.76435e-20)
(0.0499752 -7.89143e-05 -5.27579e-21)
(0.0501699 -8.00901e-05 5.23094e-22)
(0.050166 -8.1337e-05 -4.35529e-22)
(0.0505669 -8.8257e-05 -2.17975e-19)
(0.0523605 -9.56487e-05 1.57818e-22)
(0.0497025 -9.3961e-05 2.07002e-19)
(0.0498909 -9.54876e-05 -2.09712e-20)
(0.0501924 -9.5865e-05 -2.81614e-19)
)
;

boundaryField
{
    inlet
    {
        type            calculated;
        value           uniform (0.0741049 0 0);
    }
    outlet2
    {
        type            calculated;
        value           uniform (0.0741049 0 0);
    }
    outlet1
    {
        type            calculated;
        value           nonuniform List<vector> 0();
    }
    wall
    {
        type            calculated;
        value           uniform (0.0741049 0 0);
    }
    symmetryBottom
    {
        type            symmetry;
    }
    symmetryZ0
    {
        type            symmetry;
    }
    symmetryZ05
    {
        type            symmetry;
    }
    procBoundary1to0
    {
        type            processor;
        value           uniform (0.0741049 0 0);
    }
}


// ************************************************************************* //
