/*--------------------------------*- C++ -*----------------------------------*\
| =========                 |                                                 |
| \\      /  F ield         | OpenFOAM: The Open Source CFD Toolbox           |
|  \\    /   O peration     | Version:  2412                                  |
|   \\  /    A nd           | Website:  www.openfoam.com                      |
|    \\/     M anipulation  |                                                 |
\*---------------------------------------------------------------------------*/
FoamFile
{
    version     2.0;
    format      ascii;
    arch        "LSB;label=32;scalar=64";
    class       volScalarField;
    location    "1.9e-06";
    object      E;
}
// * * * * * * * * * * * * * * * * * * * * * * * * * * * * * * * * * * * * * //

dimensions      [0 0 0 0 0 0 0];

internalField   nonuniform List<scalar> 
84
(
99.4315
71.2912
73.2896
99.4351
71.2996
73.2973
99.4341
71.2988
73.2965
99.4341
71.2988
73.2965
99.4341
71.2988
73.2965
99.4341
71.2988
73.2965
99.4341
71.2988
73.2965
99.4341
71.2988
73.2965
99.4341
71.2988
73.2965
99.4341
71.2988
73.2965
99.4341
71.2988
73.2965
99.4342
71.2965
73.2945
88.3035
87.8331
88.0003
89.8562
89.358
89.5282
89.6973
89.2019
89.3713
89.5386
89.046
89.0737
87.7849
89.3801
88.8903
88.9157
89.0774
89.2228
88.7357
88.7588
88.9203
89.0689
88.5846
88.6054
88.7666
88.9168
88.4351
88.4536
88.6144
88.7804
88.3006
88.3172
88.3244
87.8052
88.5773
88.1021
88.1157
88.12
88.2818
88.4311
87.9583
87.9698
87.9721
88.1463
88.2777
87.8075
87.8167
87.9769
)
;

boundaryField
{
    inlet
    {
        type            calculated;
        value           uniform 0;
    }
    outlet2
    {
        type            calculated;
        value           uniform 0;
    }
    outlet1
    {
        type            calculated;
        value           nonuniform List<scalar> 0();
    }
    wall
    {
        type            calculated;
        value           uniform 0;
    }
    symmetryBottom
    {
        type            symmetry;
    }
    symmetryZ0
    {
        type            symmetry;
    }
    symmetryZ05
    {
        type            symmetry;
    }
    procBoundary1to0
    {
        type            processor;
        value           uniform 0;
    }
}


// ************************************************************************* //
