/*--------------------------------*- C++ -*----------------------------------*\
| =========                 |                                                 |
| \\      /  F ield         | OpenFOAM: The Open Source CFD Toolbox           |
|  \\    /   O peration     | Version:  2412                                  |
|   \\  /    A nd           | Website:  www.openfoam.com                      |
|    \\/     M anipulation  |                                                 |
\*---------------------------------------------------------------------------*/
FoamFile
{
    version     2.0;
    format      ascii;
    arch        "LSB;label=32;scalar=64";
    class       volScalarField;
    location    "1.9e-06";
    object      rho_dof0;
}
// * * * * * * * * * * * * * * * * * * * * * * * * * * * * * * * * * * * * * //

dimensions      [0 0 0 0 0 0 0];

internalField   nonuniform List<scalar> 
84
(
2.81087e-05
2.02398e-05
2.07923e-05
2.81098e-05
2.02422e-05
2.07945e-05
2.81095e-05
2.02419e-05
2.07943e-05
2.81095e-05
2.02419e-05
2.07943e-05
2.81095e-05
2.02419e-05
2.07943e-05
2.81095e-05
2.02419e-05
2.07943e-05
2.81095e-05
2.02419e-05
2.07943e-05
2.81095e-05
2.02419e-05
2.07943e-05
2.81095e-05
2.02419e-05
2.07943e-05
2.81095e-05
2.02419e-05
2.07943e-05
2.81095e-05
2.02419e-05
2.07943e-05
2.81095e-05
2.02413e-05
2.07937e-05
2.50004e-05
2.48702e-05
2.49169e-05
2.54303e-05
2.52926e-05
2.53401e-05
2.53859e-05
2.52489e-05
2.52962e-05
2.53415e-05
2.52053e-05
2.5213e-05
2.48525e-05
2.52972e-05
2.51618e-05
2.51688e-05
2.5214e-05
2.52529e-05
2.51182e-05
2.51246e-05
2.51698e-05
2.52087e-05
2.50748e-05
2.50805e-05
2.51256e-05
2.51647e-05
2.50316e-05
2.50367e-05
2.50817e-05
2.51201e-05
2.49878e-05
2.49922e-05
2.49941e-05
2.48587e-05
2.50774e-05
2.49458e-05
2.49496e-05
2.49509e-05
2.49962e-05
2.50331e-05
2.49023e-05
2.49055e-05
2.49061e-05
2.49548e-05
2.49894e-05
2.48593e-05
2.48619e-05
2.49066e-05
)
;

boundaryField
{
    inlet
    {
        type            calculated;
        value           uniform 2.81085e-05;
    }
    outlet2
    {
        type            calculated;
        value           uniform 2.81085e-05;
    }
    outlet1
    {
        type            calculated;
        value           nonuniform List<scalar> 0();
    }
    wall
    {
        type            calculated;
        value           uniform 2.81085e-05;
    }
    symmetryBottom
    {
        type            symmetry;
    }
    symmetryZ0
    {
        type            symmetry;
    }
    symmetryZ05
    {
        type            symmetry;
    }
    procBoundary1to0
    {
        type            processor;
        value           uniform 2.81085e-05;
    }
}


// ************************************************************************* //
