/*--------------------------------*- C++ -*----------------------------------*\
| =========                 |                                                 |
| \\      /  F ield         | OpenFOAM: The Open Source CFD Toolbox           |
|  \\    /   O peration     | Version:  2412                                  |
|   \\  /    A nd           | Website:  www.openfoam.com                      |
|    \\/     M anipulation  |                                                 |
\*---------------------------------------------------------------------------*/
FoamFile
{
    version     2.0;
    format      ascii;
    arch        "LSB;label=32;scalar=64";
    class       volVectorField;
    location    "1.9e-06";
    object      rhoU;
}
// * * * * * * * * * * * * * * * * * * * * * * * * * * * * * * * * * * * * * //

dimensions      [0 0 0 0 0 0 0];

internalField   nonuniform List<vector> 
84
(
(0.0741055 -6.24564e-08 0)
(0.0532443 -2.2561e-07 0)
(0.0547176 -2.02712e-07 -5.93286e-20)
(0.0741082 -4.95139e-05 0)
(0.0532505 -3.91354e-05 0)
(0.0547234 -3.99136e-05 -5.93283e-20)
(0.0741075 -4.94449e-05 0)
(0.05325 -3.90801e-05 0)
(0.0547228 -3.98572e-05 9.05538e-20)
(0.0741075 -4.94449e-05 0)
(0.05325 -3.90801e-05 0)
(0.0547228 -3.98572e-05 -1.18666e-19)
(0.0741075 -4.94449e-05 0)
(0.05325 -3.90801e-05 0)
(0.0547228 -3.98572e-05 -1.98286e-19)
(0.0741075 -4.94449e-05 0)
(0.05325 -3.90801e-05 0)
(0.0547228 -3.98572e-05 1.12412e-19)
(0.0741075 -4.94449e-05 0)
(0.05325 -3.90801e-05 0)
(0.0547228 -3.98572e-05 -1.38963e-19)
(0.0741075 -4.94449e-05 0)
(0.05325 -3.90801e-05 0)
(0.0547228 -3.98572e-05 -1.63938e-19)
(0.0741075 -4.94449e-05 0)
(0.05325 -3.90801e-05 0)
(0.0547228 -3.98572e-05 5.93268e-20)
(0.0741075 -4.94449e-05 0)
(0.05325 -3.90801e-05 0)
(0.0547228 -3.98572e-05 -1.38967e-19)
(0.0741075 -4.94449e-05 0)
(0.05325 -3.90797e-05 0)
(0.0547228 -3.98569e-05 -3.45054e-19)
(0.0741076 -4.94519e-05 0)
(0.0532483 -3.89109e-05 0)
(0.0547213 -3.97119e-05 0)
(0.065857 4.94393e-05 1.79931e-21)
(0.0655101 4.85615e-05 5.2058e-20)
(0.0656341 4.86555e-05 5.16325e-21)
(0.067006 -4.92892e-05 1.70944e-21)
(0.0666387 -4.97402e-05 5.60336e-20)
(0.0667648 -4.98049e-05 -4.14475e-22)
(0.0668881 -4.92132e-05 -2.82021e-21)
(0.0665229 -4.96631e-05 -2.55062e-20)
(0.0666485 -4.97133e-05 -1.11624e-19)
(0.0667705 -4.91362e-05 3.67043e-21)
(0.0664073 -4.95861e-05 -9.16294e-22)
(0.0664278 -5.03045e-05 2.35591e-23)
(0.0654723 1.02205e-06 7.81874e-20)
(0.066653 -4.90622e-05 -2.37981e-20)
(0.0662919 -4.95121e-05 -1.11259e-22)
(0.0663107 -5.02283e-05 -8.48986e-22)
(0.0664305 -5.02902e-05 7.86483e-20)
(0.0665354 -4.65628e-05 -3.58684e-21)
(0.0661763 -4.70586e-05 -5.46488e-20)
(0.0661933 -4.77406e-05 5.34162e-23)
(0.066313 -4.77999e-05 5.32066e-20)
(0.0664174 -3.72294e-05 4.04509e-21)
(0.0660604 -3.78812e-05 -1.71844e-22)
(0.0660757 -3.84242e-05 -3.43183e-22)
(0.0661952 -3.84725e-05 -4.40735e-22)
(0.0663005 -3.1197e-05 5.53799e-21)
(0.0659455 -3.19497e-05 -5.32622e-20)
(0.0659591 -3.24046e-05 5.73864e-20)
(0.0660783 -3.24351e-05 4.4991e-22)
(0.0661823 -2.80804e-05 -1.82156e-21)
(0.0658292 -2.88812e-05 -8.09459e-20)
(0.065841 -2.92869e-05 -8.12857e-20)
(0.065846 -2.97121e-05 8.64072e-20)
(0.0654883 1.09682e-06 5.54388e-19)
(0.0660696 -2.80567e-05 4.63943e-21)
(0.0657189 -2.88535e-05 -8.26169e-20)
(0.0657291 -2.92539e-05 5.54052e-20)
(0.0657325 -2.96739e-05 1.34196e-19)
(0.0658526 -2.97638e-05 8.77317e-20)
(0.0659525 -3.16451e-05 1.13502e-20)
(0.0656038 -3.23782e-05 -1.91215e-22)
(0.0656123 -3.28319e-05 1.07947e-22)
(0.0656141 -3.33149e-05 -1.81544e-23)
(0.0657432 -3.40475e-05 -8.07314e-20)
(0.065837 -3.82057e-05 6.06879e-23)
(0.0654902 -3.88152e-05 7.87154e-20)
(0.065497 -3.93633e-05 -2.33015e-21)
(0.0656157 -3.94084e-05 -1.37943e-19)
)
;

boundaryField
{
    inlet
    {
        type            calculated;
        value           uniform (0 0 0);
    }
    outlet2
    {
        type            calculated;
        value           uniform (0 0 0);
    }
    outlet1
    {
        type            calculated;
        value           nonuniform List<vector> 0();
    }
    wall
    {
        type            calculated;
        value           uniform (0 0 0);
    }
    symmetryBottom
    {
        type            symmetry;
    }
    symmetryZ0
    {
        type            symmetry;
    }
    symmetryZ05
    {
        type            symmetry;
    }
    procBoundary1to0
    {
        type            processor;
        value           uniform (0 0 0);
    }
}


// ************************************************************************* //
