/*--------------------------------*- C++ -*----------------------------------*\
| =========                 |                                                 |
| \\      /  F ield         | OpenFOAM: The Open Source CFD Toolbox           |
|  \\    /   O peration     | Version:  2412                                  |
|   \\  /    A nd           | Website:  www.openfoam.com                      |
|    \\/     M anipulation  |                                                 |
\*---------------------------------------------------------------------------*/
FoamFile
{
    version     2.0;
    format      ascii;
    arch        "LSB;label=32;scalar=64";
    class       volScalarField;
    location    "1.9e-06";
    object      T;
}
// * * * * * * * * * * * * * * * * * * * * * * * * * * * * * * * * * * * * * //

dimensions      [0 0 0 0 0 0 0];

internalField   nonuniform List<scalar> 
84
(
200.002
199.974
200.007
199.997
199.964
199.997
199.995
199.963
199.996
199.995
199.963
199.996
199.995
199.963
199.996
199.995
199.963
199.996
199.995
199.963
199.996
199.995
199.963
199.996
199.995
199.963
199.996
199.995
199.963
199.996
199.995
199.963
199.996
199.996
199.959
199.992
201.147
201.13
201.13
200.004
199.999
200
200.004
199.999
200
200.004
199.999
200
200.003
200.004
200
200
200
200.219
200.212
200.215
200.215
201.03
201.013
201.029
201.028
201.792
201.767
201.793
201.792
204.758
204.695
204.767
204.837
199.865
198.092
198.109
198.081
198.053
198.033
199.549
199.55
199.544
199.537
199.548
199.814
199.812
199.809
199.809
)
;

boundaryField
{
    inlet
    {
        type            calculated;
        value           uniform 0;
    }
    outlet2
    {
        type            calculated;
        value           uniform 0;
    }
    outlet1
    {
        type            calculated;
        value           nonuniform List<scalar> 0();
    }
    wall
    {
        type            calculated;
        value           uniform 0;
    }
    symmetryBottom
    {
        type            symmetry;
    }
    symmetryZ0
    {
        type            symmetry;
    }
    symmetryZ05
    {
        type            symmetry;
    }
    procBoundary1to0
    {
        type            processor;
        value           uniform 0;
    }
}


// ************************************************************************* //
