/*--------------------------------*- C++ -*----------------------------------*\
| =========                 |                                                 |
| \\      /  F ield         | OpenFOAM: The Open Source CFD Toolbox           |
|  \\    /   O peration     | Version:  2412                                  |
|   \\  /    A nd           | Website:  www.openfoam.com                      |
|    \\/     M anipulation  |                                                 |
\*---------------------------------------------------------------------------*/
FoamFile
{
    version     2.0;
    format      ascii;
    arch        "LSB;label=32;scalar=64";
    class       volScalarField;
    location    "1.66832e-07";
    object      E;
}
// * * * * * * * * * * * * * * * * * * * * * * * * * * * * * * * * * * * * * //

dimensions      [0 0 0 0 0 0 0];

internalField   nonuniform List<scalar> 
625
(
99.4574
96.794
96.794
99.4574
96.794
96.794
99.4574
96.794
96.794
99.4574
96.794
96.794
99.4574
96.794
96.794
99.4574
96.794
96.794
99.4574
96.794
96.794
99.4574
96.794
96.794
99.4574
96.794
96.794
99.4574
96.794
96.794
99.4574
96.794
96.794
99.4574
96.794
96.794
99.4574
96.794
96.794
99.4574
96.794
96.794
99.4574
96.794
96.794
99.4574
96.794
96.794
99.4574
96.794
96.794
99.4574
96.794
96.794
99.4574
96.794
96.794
99.4574
96.794
96.794
99.4574
96.794
96.794
99.4574
96.794
96.794
99.4574
96.794
96.794
99.4574
96.794
96.794
99.4574
96.7936
96.7936
97.2275
97.2271
97.2268
97.2264
97.226
97.2256
97.2253
97.2249
97.2245
97.2241
97.2237
97.2233
97.2229
97.2224
97.222
97.2216
97.2211
97.2207
97.2202
97.2198
97.2193
97.2362
97.6186
97.6209
97.6233
97.6257
97.6282
97.6307
97.6332
97.6358
97.6383
97.641
97.6437
97.6464
97.6491
97.6519
97.6547
97.6576
97.6606
97.6635
97.6665
97.6696
97.6727
97.6896
97.6034
97.6056
97.6079
97.6102
97.6126
97.6149
97.6173
97.6198
97.6222
97.6248
97.6273
97.6299
97.6325
97.6352
97.6379
97.6406
97.6434
97.6462
97.6491
97.652
97.655
97.6719
97.5887
97.5908
97.593
97.5952
97.5974
97.5997
97.602
97.6043
97.6066
97.609
97.6115
97.6139
97.6164
97.619
97.6216
97.6242
97.6269
97.6296
97.6323
97.6351
97.6379
97.6548
97.5739
97.576
97.578
97.5801
97.5822
97.5844
97.5866
97.5888
97.591
97.5933
97.5956
97.598
97.6004
97.6028
97.6053
97.6078
97.6103
97.6129
97.6155
97.6181
97.6208
97.6377
97.5592
97.5611
97.5631
97.5651
97.5671
97.5691
97.5712
97.5733
97.5754
97.5776
97.5798
97.5821
97.5843
97.5866
97.589
97.5913
97.5937
97.5962
97.5987
97.6012
97.6037
97.6206
97.5444
97.5463
97.5481
97.55
97.5519
97.5539
97.5558
97.5578
97.5599
97.5619
97.564
97.5661
97.5683
97.5704
97.5726
97.5749
97.5772
97.5795
97.5818
97.5842
97.5867
97.6035
97.5297
97.5314
97.5332
97.535
97.5368
97.5386
97.5405
97.5423
97.5443
97.5462
97.5482
97.5502
97.5522
97.5543
97.5563
97.5585
97.5606
97.5628
97.565
97.5673
97.5696
97.5865
97.515
97.5166
97.5182
97.5199
97.5216
97.5233
97.5251
97.5269
97.5287
97.5305
97.5323
97.5342
97.5361
97.5381
97.54
97.542
97.5441
97.5461
97.5482
97.5503
97.5525
97.5694
97.5002
97.5018
97.5033
97.5049
97.5065
97.5081
97.5097
97.5114
97.5131
97.5148
97.5165
97.5183
97.5201
97.5219
97.5237
97.5256
97.5275
97.5294
97.5314
97.5334
97.5354
97.5523
97.4855
97.4869
97.4884
97.4898
97.4913
97.4928
97.4944
97.4959
97.4975
97.4991
97.5007
97.5024
97.504
97.5057
97.5074
97.5092
97.511
97.5128
97.5146
97.5165
97.5183
97.5352
97.4708
97.4721
97.4735
97.4748
97.4762
97.4776
97.479
97.4805
97.4819
97.4834
97.4849
97.4864
97.488
97.4896
97.4912
97.4928
97.4944
97.4961
97.4978
97.4995
97.5013
97.5182
97.4561
97.4573
97.4585
97.4598
97.4611
97.4624
97.4637
97.465
97.4664
97.4677
97.4691
97.4705
97.472
97.4734
97.4749
97.4764
97.4779
97.4794
97.481
97.4826
97.4842
97.5011
97.4414
97.4425
97.4436
97.4448
97.4459
97.4471
97.4483
97.4495
97.4508
97.452
97.4533
97.4546
97.4559
97.4573
97.4586
97.46
97.4614
97.4628
97.4642
97.4657
97.4672
97.484
97.4266
97.4277
97.4287
97.4297
97.4308
97.4319
97.433
97.4341
97.4352
97.4364
97.4375
97.4387
97.4399
97.4411
97.4423
97.4436
97.4448
97.4461
97.4474
97.4488
97.4501
97.467
97.4119
97.4128
97.4138
97.4147
97.4157
97.4166
97.4176
97.4186
97.4196
97.4207
97.4217
97.4228
97.4238
97.4249
97.426
97.4272
97.4283
97.4295
97.4306
97.4318
97.4331
97.4499
97.3972
97.398
97.3989
97.3997
97.4006
97.4014
97.4023
97.4032
97.4041
97.405
97.4059
97.4069
97.4078
97.4088
97.4098
97.4108
97.4118
97.4128
97.4139
97.4149
97.416
97.4329
97.3825
97.3832
97.3839
97.3847
97.3854
97.3862
97.3869
97.3877
97.3885
97.3893
97.3901
97.3909
97.3918
97.3926
97.3935
97.3944
97.3953
97.3962
97.3971
97.398
97.3989
97.4158
97.3678
97.3684
97.369
97.3697
97.3703
97.3709
97.3716
97.3723
97.3729
97.3736
97.3743
97.375
97.3758
97.3765
97.3772
97.378
97.3787
97.3795
97.3803
97.3811
97.3819
97.3988
97.3531
97.3536
97.3541
97.3546
97.3552
97.3557
97.3563
97.3568
97.3574
97.358
97.3585
97.3591
97.3597
97.3603
97.3609
97.3616
97.3622
97.3628
97.3635
97.3642
97.3648
97.3817
97.3384
97.3388
97.3392
97.3396
97.34
97.3405
97.3409
97.3414
97.3418
97.3423
97.3427
97.3432
97.3437
97.3442
97.3447
97.3452
97.3457
97.3462
97.3467
97.3473
97.3478
97.3647
97.3237
97.324
97.3243
97.3246
97.3249
97.3253
97.3256
97.3259
97.3263
97.3266
97.3269
97.3273
97.3277
97.328
97.3284
97.3288
97.3292
97.3295
97.3299
97.3303
97.3307
97.3476
97.309
97.3092
97.3094
97.3096
97.3098
97.31
97.3102
97.3105
97.3107
97.3109
97.3112
97.3114
97.3116
97.3119
97.3121
97.3124
97.3126
97.3129
97.3132
97.3134
97.3137
97.3306
97.2943
97.2944
97.2945
97.2946
97.2947
97.2948
97.2949
97.295
97.2951
97.2952
97.2954
97.2955
97.2956
97.2957
97.2959
97.296
97.2961
97.2962
97.2964
97.2965
97.2967
97.3135
97.2793
97.2793
97.2793
97.2793
97.2793
97.2793
97.2793
97.2793
97.2793
97.2793
97.2793
97.2793
97.2793
97.2793
97.2793
97.2793
97.2793
97.2793
97.2793
97.2793
97.2793
97.2961
)
;

boundaryField
{
    inlet
    {
        type            calculated;
        value           uniform 0;
    }
    outlet2
    {
        type            calculated;
        value           uniform 0;
    }
    outlet1
    {
        type            calculated;
        value           uniform 0;
    }
    wall
    {
        type            calculated;
        value           uniform 0;
    }
    symmetryBottom
    {
        type            symmetry;
    }
    symmetryZ0
    {
        type            symmetry;
    }
    symmetryZ05
    {
        type            symmetry;
    }
}


// ************************************************************************* //
