/*--------------------------------*- C++ -*----------------------------------*\
| =========                 |                                                 |
| \\      /  F ield         | OpenFOAM: The Open Source CFD Toolbox           |
|  \\    /   O peration     | Version:  2412                                  |
|   \\  /    A nd           | Website:  www.openfoam.com                      |
|    \\/     M anipulation  |                                                 |
\*---------------------------------------------------------------------------*/
FoamFile
{
    version     2.0;
    format      ascii;
    arch        "LSB;label=32;scalar=64";
    class       volScalarField;
    location    "1.66832e-07";
    object      E_dof1;
}
// * * * * * * * * * * * * * * * * * * * * * * * * * * * * * * * * * * * * * //

dimensions      [0 0 0 0 0 0 0];

internalField   nonuniform List<scalar> 
625
(
7.88325
-1.34707e-10
-0.0012596
7.88325
-1.34709e-10
-0.000931132
7.88325
-1.34711e-10
-0.00104052
7.88325
-1.34709e-10
-0.00104052
7.88325
-1.34709e-10
-0.00104052
7.88325
-1.3471e-10
-0.00104052
7.88325
-1.34709e-10
-0.00104052
7.88325
-1.34709e-10
-0.00104052
7.88325
-1.34709e-10
-0.00104052
7.88325
-1.34709e-10
-0.00104052
7.88325
-1.34709e-10
-0.00104052
7.88325
-1.34709e-10
-0.00104052
7.88325
-1.34709e-10
-0.00104052
7.88325
-1.3471e-10
-0.00104052
7.88325
-1.3471e-10
-0.00104052
7.88325
-1.3471e-10
-0.00104052
7.88325
-1.34713e-10
-0.00104052
7.88325
-1.34708e-10
-0.00104052
7.88325
-1.3471e-10
-0.00104052
7.88325
-1.3471e-10
-0.00104052
7.88325
-1.34709e-10
-0.00104052
7.88325
-1.34711e-10
-0.00104052
7.88325
-1.34708e-10
-0.00104052
7.88325
-1.34711e-10
-0.00104052
7.88434
-1.34149e-10
-1.82473e-05
-0.0217705
-0.0219209
-0.0220733
-0.0222279
-0.0223847
-0.0225437
-0.022705
-0.0228686
-0.0230345
-0.0232029
-0.0233738
-0.0235472
-0.0237232
-0.0239019
-0.0240833
-0.0242674
-0.0244544
-0.0246443
-0.0248371
-0.025033
-0.025232
-1.38677
-0.0218162
-0.0219672
-0.0221203
-0.0222756
-0.022433
-0.0225927
-0.0227547
-0.022919
-0.0230857
-0.0232549
-0.0234265
-0.0236007
-0.0237775
-0.023957
-0.0241392
-0.0243242
-0.0245121
-0.0247029
-0.0248966
-0.0250935
-0.0252935
0.0249095
-0.021815
-0.0219659
-0.022119
-0.0222743
-0.0224317
-0.0225914
-0.0227533
-0.0229176
-0.0230843
-0.0232534
-0.0234251
-0.0235992
-0.023776
-0.0239555
-0.0241377
-0.0243227
-0.0245105
-0.0247013
-0.024895
-0.0250918
-0.0252918
0.0231618
-0.0218137
-0.0219647
-0.0221177
-0.022273
-0.0224304
-0.02259
-0.022752
-0.0229162
-0.0230829
-0.023252
-0.0234236
-0.0235978
-0.0237745
-0.023954
-0.0241361
-0.0243211
-0.0245089
-0.0246996
-0.0248934
-0.0250902
-0.0252901
0.023253
-0.0218124
-0.0219634
-0.0221164
-0.0222716
-0.022429
-0.0225887
-0.0227506
-0.0229148
-0.0230815
-0.0232506
-0.0234222
-0.0235963
-0.0237731
-0.0239525
-0.0241346
-0.0243195
-0.0245073
-0.024698
-0.0248917
-0.0250885
-0.0252884
0.0233465
-0.0218112
-0.0219621
-0.0221152
-0.0222703
-0.0224277
-0.0225873
-0.0227492
-0.0229135
-0.0230801
-0.0232492
-0.0234207
-0.0235948
-0.0237716
-0.023951
-0.0241331
-0.024318
-0.0245057
-0.0246964
-0.0248901
-0.0250869
-0.0252867
0.0234422
-0.0218099
-0.0219609
-0.0221139
-0.022269
-0.0224264
-0.022586
-0.0227479
-0.0229121
-0.0230787
-0.0232477
-0.0234193
-0.0235934
-0.0237701
-0.0239494
-0.0241315
-0.0243164
-0.0245041
-0.0246948
-0.0248885
-0.0250852
-0.025285
0.0235402
-0.0218087
-0.0219596
-0.0221126
-0.0222677
-0.022425
-0.0225846
-0.0227465
-0.0229107
-0.0230773
-0.0232463
-0.0234178
-0.0235919
-0.0237686
-0.0239479
-0.02413
-0.0243148
-0.0245026
-0.0246932
-0.0248868
-0.0250835
-0.0252833
0.0236405
-0.0218074
-0.0219583
-0.0221113
-0.0222664
-0.0224237
-0.0225833
-0.0227451
-0.0229093
-0.0230759
-0.0232449
-0.0234164
-0.0235904
-0.0237671
-0.0239464
-0.0241285
-0.0243133
-0.024501
-0.0246916
-0.0248852
-0.0250819
-0.0252817
0.0237429
-0.0218062
-0.021957
-0.02211
-0.0222651
-0.0224224
-0.0225819
-0.0227437
-0.0229079
-0.0230745
-0.0232434
-0.0234149
-0.0235889
-0.0237656
-0.0239449
-0.0241269
-0.0243117
-0.0244994
-0.02469
-0.0248836
-0.0250802
-0.0252799
0.0238427
-0.0218047
-0.0219555
-0.0221085
-0.0222636
-0.0224208
-0.0225804
-0.0227422
-0.0229063
-0.0230728
-0.0232418
-0.0234132
-0.0235872
-0.0237639
-0.0239431
-0.0241251
-0.0243099
-0.0244975
-0.0246881
-0.0248817
-0.0250783
-0.025278
0.0238843
-0.0218033
-0.0219541
-0.022107
-0.022262
-0.0224193
-0.0225788
-0.0227406
-0.0229047
-0.0230712
-0.0232401
-0.0234116
-0.0235855
-0.0237621
-0.0239414
-0.0241233
-0.0243081
-0.0244957
-0.0246862
-0.0248798
-0.0250763
-0.025276
0.0239258
-0.0218018
-0.0219526
-0.0221055
-0.0222605
-0.0224178
-0.0225772
-0.022739
-0.0229031
-0.0230696
-0.0232385
-0.0234099
-0.0235838
-0.0237604
-0.0239396
-0.0241216
-0.0243063
-0.0244939
-0.0246844
-0.0248779
-0.0250744
-0.0252741
0.0239684
-0.0218003
-0.0219511
-0.022104
-0.022259
-0.0224162
-0.0225757
-0.0227374
-0.0229015
-0.0230679
-0.0232368
-0.0234082
-0.0235821
-0.0237587
-0.0239379
-0.0241198
-0.0243045
-0.024492
-0.0246825
-0.024876
-0.0250725
-0.0252721
0.0240119
-0.0217989
-0.0219496
-0.0221025
-0.0222575
-0.0224147
-0.0225741
-0.0227358
-0.0228999
-0.0230663
-0.0232352
-0.0234065
-0.0235804
-0.0237569
-0.0239361
-0.024118
-0.0243027
-0.0244902
-0.0246806
-0.0248741
-0.0250706
-0.0252702
0.0240563
-0.0217974
-0.0219482
-0.022101
-0.022256
-0.0224131
-0.0225726
-0.0227342
-0.0228983
-0.0230647
-0.0232335
-0.0234048
-0.0235787
-0.0237552
-0.0239343
-0.0241162
-0.0243009
-0.0244884
-0.0246788
-0.0248722
-0.0250686
-0.0252682
0.0241018
-0.021796
-0.0219467
-0.0220995
-0.0222544
-0.0224116
-0.022571
-0.0227327
-0.0228966
-0.023063
-0.0232318
-0.0234032
-0.023577
-0.0237535
-0.0239326
-0.0241144
-0.024299
-0.0244865
-0.0246769
-0.0248703
-0.0250667
-0.0252662
0.0241481
-0.0217945
-0.0219452
-0.022098
-0.0222529
-0.0224101
-0.0225694
-0.0227311
-0.022895
-0.0230614
-0.0232302
-0.0234015
-0.0235753
-0.0237517
-0.0239308
-0.0241126
-0.0242972
-0.0244847
-0.024675
-0.0248684
-0.0250648
-0.0252643
0.0241954
-0.021793
-0.0219437
-0.0220965
-0.0222514
-0.0224085
-0.0225679
-0.0227295
-0.0228934
-0.0230598
-0.0232285
-0.0233998
-0.0235736
-0.02375
-0.0239291
-0.0241109
-0.0242954
-0.0244828
-0.0246732
-0.0248665
-0.0250628
-0.0252623
0.0242437
-0.0217916
-0.0219422
-0.022095
-0.0222499
-0.022407
-0.0225663
-0.0227279
-0.0228918
-0.0230581
-0.0232269
-0.0233981
-0.0235719
-0.0237483
-0.0239273
-0.0241091
-0.0242936
-0.024481
-0.0246713
-0.0248646
-0.0250609
-0.0252604
0.0242929
-0.0217901
-0.0219408
-0.0220935
-0.0222484
-0.0224054
-0.0225647
-0.0227263
-0.0228902
-0.0230565
-0.0232252
-0.0233964
-0.0235702
-0.0237465
-0.0239255
-0.0241073
-0.0242918
-0.0244792
-0.0246694
-0.0248627
-0.025059
-0.0252584
0.024343
-0.0217887
-0.0219393
-0.022092
-0.0222468
-0.0224039
-0.0225631
-0.0227247
-0.0228886
-0.0230549
-0.0232236
-0.0233947
-0.0235685
-0.0237448
-0.0239238
-0.0241055
-0.02429
-0.0244773
-0.0246675
-0.0248608
-0.025057
-0.0252564
0.0243941
-0.0217872
-0.0219378
-0.0220905
-0.0222453
-0.0224023
-0.0225616
-0.0227231
-0.022887
-0.0230532
-0.0232219
-0.0233931
-0.0235668
-0.0237431
-0.023922
-0.0241037
-0.0242882
-0.0244754
-0.0246657
-0.0248589
-0.0250551
-0.0252545
0.024446
-0.0217857
-0.0219363
-0.022089
-0.0222438
-0.0224008
-0.02256
-0.0227215
-0.0228854
-0.0230516
-0.0232202
-0.0233914
-0.023565
-0.0237413
-0.0239202
-0.0241019
-0.0242863
-0.0244736
-0.0246638
-0.024857
-0.0250532
-0.0252525
0.0244989
-0.0217874
-0.0219379
-0.0220906
-0.0222455
-0.0224025
-0.0225617
-0.0227233
-0.0228872
-0.0230534
-0.0232221
-0.0233932
-0.0235669
-0.0237432
-0.0239222
-0.0241039
-0.0242883
-0.0244756
-0.0246659
-0.0248591
-0.0250553
-0.0252547
0.025524
)
;

boundaryField
{
    inlet
    {
        type            calculated;
        value           uniform 0;
    }
    outlet2
    {
        type            calculated;
        value           uniform 0;
    }
    outlet1
    {
        type            calculated;
        value           uniform 0;
    }
    wall
    {
        type            calculated;
        value           uniform 0;
    }
    symmetryBottom
    {
        type            symmetry;
    }
    symmetryZ0
    {
        type            symmetry;
    }
    symmetryZ05
    {
        type            symmetry;
    }
}


// ************************************************************************* //
