/*--------------------------------*- C++ -*----------------------------------*\
| =========                 |                                                 |
| \\      /  F ield         | OpenFOAM: The Open Source CFD Toolbox           |
|  \\    /   O peration     | Version:  2412                                  |
|   \\  /    A nd           | Website:  www.openfoam.com                      |
|    \\/     M anipulation  |                                                 |
\*---------------------------------------------------------------------------*/
FoamFile
{
    version     2.0;
    format      ascii;
    arch        "LSB;label=32;scalar=64";
    class       volScalarField;
    location    "1.66832e-07";
    object      E_dof3;
}
// * * * * * * * * * * * * * * * * * * * * * * * * * * * * * * * * * * * * * //

dimensions      [0 0 0 0 0 0 0];

internalField   nonuniform List<scalar> 
625
(
0.132279
0.130942
0.129159
0.132279
0.130942
0.129159
0.132279
0.130942
0.129159
0.132279
0.130942
0.129159
0.132279
0.130942
0.129159
0.132279
0.130942
0.129159
0.132279
0.130942
0.129159
0.132279
0.130942
0.129159
0.132279
0.130942
0.129159
0.132279
0.130942
0.129159
0.132279
0.130942
0.129159
0.132279
0.130942
0.129159
0.132279
0.130942
0.129159
0.132279
0.130942
0.129159
0.132279
0.130942
0.129159
0.132279
0.130942
0.129159
0.132279
0.130942
0.129159
0.132279
0.130942
0.129159
0.132279
0.130942
0.129159
0.132279
0.130942
0.129159
0.132279
0.130942
0.129159
0.132279
0.130942
0.129159
0.132279
0.130942
0.129159
0.132279
0.130942
0.129159
0.132297
0.13096
0.130941
0.13164
0.131642
0.131645
0.131647
0.13165
0.131652
0.131655
0.131658
0.13166
0.131663
0.131666
0.131669
0.131671
0.131674
0.131677
0.13168
0.131683
0.131686
0.131689
0.131692
0.131696
0.154459
0.131913
0.131918
0.131922
0.131926
0.131931
0.131936
0.13194
0.131945
0.13195
0.131954
0.131959
0.131964
0.131969
0.131974
0.13198
0.131985
0.13199
0.131996
0.132001
0.132007
0.132013
0.154835
0.131906
0.13191
0.131914
0.131919
0.131923
0.131928
0.131932
0.131937
0.131942
0.131946
0.131951
0.131956
0.131961
0.131966
0.131971
0.131977
0.131982
0.131987
0.131993
0.131998
0.132004
0.154825
0.131898
0.131903
0.131907
0.131911
0.131916
0.13192
0.131924
0.131929
0.131934
0.131938
0.131943
0.131948
0.131953
0.131958
0.131963
0.131968
0.131973
0.131979
0.131984
0.13199
0.131995
0.154814
0.131891
0.131895
0.131899
0.131903
0.131908
0.131912
0.131917
0.131921
0.131926
0.13193
0.131935
0.13194
0.131945
0.13195
0.131955
0.13196
0.131965
0.13197
0.131976
0.131981
0.131987
0.154804
0.131883
0.131887
0.131892
0.131896
0.1319
0.131904
0.131909
0.131913
0.131918
0.131922
0.131927
0.131932
0.131937
0.131942
0.131946
0.131951
0.131957
0.131962
0.131967
0.131972
0.131978
0.154794
0.131876
0.13188
0.131884
0.131888
0.131892
0.131897
0.131901
0.131905
0.13191
0.131914
0.131919
0.131924
0.131928
0.131933
0.131938
0.131943
0.131948
0.131953
0.131958
0.131964
0.131969
0.154783
0.131868
0.131872
0.131876
0.13188
0.131885
0.131889
0.131893
0.131898
0.131902
0.131906
0.131911
0.131916
0.13192
0.131925
0.13193
0.131935
0.13194
0.131945
0.13195
0.131955
0.13196
0.154773
0.131861
0.131865
0.131869
0.131873
0.131877
0.131881
0.131885
0.13189
0.131894
0.131898
0.131903
0.131907
0.131912
0.131917
0.131922
0.131926
0.131931
0.131936
0.131941
0.131946
0.131952
0.154763
0.131853
0.131857
0.131861
0.131865
0.131869
0.131873
0.131877
0.131882
0.131886
0.13189
0.131895
0.131899
0.131904
0.131908
0.131913
0.131918
0.131923
0.131928
0.131933
0.131938
0.131943
0.154752
0.131845
0.131848
0.131852
0.131856
0.13186
0.131864
0.131868
0.131873
0.131877
0.131881
0.131885
0.13189
0.131894
0.131899
0.131904
0.131908
0.131913
0.131918
0.131923
0.131928
0.131933
0.15474
0.131836
0.13184
0.131843
0.131847
0.131851
0.131855
0.131859
0.131863
0.131868
0.131872
0.131876
0.13188
0.131885
0.131889
0.131894
0.131899
0.131903
0.131908
0.131913
0.131918
0.131923
0.154728
0.131827
0.131831
0.131835
0.131838
0.131842
0.131846
0.13185
0.131854
0.131858
0.131862
0.131867
0.131871
0.131875
0.13188
0.131884
0.131889
0.131893
0.131898
0.131903
0.131908
0.131913
0.154716
0.131818
0.131822
0.131826
0.13183
0.131833
0.131837
0.131841
0.131845
0.131849
0.131853
0.131857
0.131862
0.131866
0.13187
0.131875
0.131879
0.131884
0.131888
0.131893
0.131898
0.131903
0.154704
0.13181
0.131813
0.131817
0.131821
0.131824
0.131828
0.131832
0.131836
0.13184
0.131844
0.131848
0.131852
0.131856
0.131861
0.131865
0.131869
0.131874
0.131878
0.131883
0.131888
0.131892
0.154692
0.131801
0.131805
0.131808
0.131812
0.131815
0.131819
0.131823
0.131827
0.131831
0.131835
0.131839
0.131843
0.131847
0.131851
0.131855
0.13186
0.131864
0.131868
0.131873
0.131878
0.131882
0.15468
0.131792
0.131796
0.131799
0.131803
0.131806
0.13181
0.131814
0.131818
0.131821
0.131825
0.131829
0.131833
0.131837
0.131841
0.131846
0.13185
0.131854
0.131859
0.131863
0.131868
0.131872
0.154668
0.131784
0.131787
0.13179
0.131794
0.131797
0.131801
0.131805
0.131808
0.131812
0.131816
0.13182
0.131824
0.131828
0.131832
0.131836
0.13184
0.131844
0.131849
0.131853
0.131858
0.131862
0.154656
0.131775
0.131778
0.131782
0.131785
0.131788
0.131792
0.131796
0.131799
0.131803
0.131807
0.131811
0.131814
0.131818
0.131822
0.131826
0.13183
0.131835
0.131839
0.131843
0.131848
0.131852
0.154644
0.131766
0.131769
0.131773
0.131776
0.131779
0.131783
0.131787
0.13179
0.131794
0.131797
0.131801
0.131805
0.131809
0.131813
0.131817
0.131821
0.131825
0.131829
0.131833
0.131837
0.131842
0.154632
0.131757
0.131761
0.131764
0.131767
0.131771
0.131774
0.131777
0.131781
0.131784
0.131788
0.131792
0.131795
0.131799
0.131803
0.131807
0.131811
0.131815
0.131819
0.131823
0.131827
0.131832
0.15462
0.131749
0.131752
0.131755
0.131758
0.131762
0.131765
0.131768
0.131772
0.131775
0.131779
0.131782
0.131786
0.13179
0.131794
0.131797
0.131801
0.131805
0.131809
0.131813
0.131817
0.131822
0.154608
0.13174
0.131743
0.131746
0.131749
0.131753
0.131756
0.131759
0.131763
0.131766
0.131769
0.131773
0.131777
0.13178
0.131784
0.131788
0.131791
0.131795
0.131799
0.131803
0.131807
0.131811
0.154596
0.131731
0.131734
0.131737
0.13174
0.131744
0.131747
0.13175
0.131753
0.131757
0.13176
0.131764
0.131767
0.131771
0.131774
0.131778
0.131782
0.131785
0.131789
0.131793
0.131797
0.131801
0.154584
0.131741
0.131744
0.131747
0.13175
0.131753
0.131757
0.13176
0.131764
0.131767
0.13177
0.131774
0.131778
0.131781
0.131785
0.131789
0.131793
0.131796
0.1318
0.131804
0.131808
0.131812
0.154598
)
;

boundaryField
{
    inlet
    {
        type            calculated;
        value           uniform 0;
    }
    outlet2
    {
        type            calculated;
        value           uniform 0;
    }
    outlet1
    {
        type            calculated;
        value           uniform 0;
    }
    wall
    {
        type            calculated;
        value           uniform 0;
    }
    symmetryBottom
    {
        type            symmetry;
    }
    symmetryZ0
    {
        type            symmetry;
    }
    symmetryZ05
    {
        type            symmetry;
    }
}


// ************************************************************************* //
