/*--------------------------------*- C++ -*----------------------------------*\
| =========                 |                                                 |
| \\      /  F ield         | OpenFOAM: The Open Source CFD Toolbox           |
|  \\    /   O peration     | Version:  2412                                  |
|   \\  /    A nd           | Website:  www.openfoam.com                      |
|    \\/     M anipulation  |                                                 |
\*---------------------------------------------------------------------------*/
FoamFile
{
    version     2.0;
    format      ascii;
    arch        "LSB;label=32;scalar=64";
    class       volScalarField;
    location    "1.66832e-07";
    object      E_dof2;
}
// * * * * * * * * * * * * * * * * * * * * * * * * * * * * * * * * * * * * * //

dimensions      [0 0 0 0 0 0 0];

internalField   nonuniform List<scalar> 
625
(
0.000160504
0.00125631
-1.0976e-06
-0.000171682
0.000923473
-7.65581e-06
-6.22789e-05
0.00103286
-7.65435e-06
-6.22789e-05
0.00103286
-7.65435e-06
-6.22789e-05
0.00103286
-7.65435e-06
-6.22789e-05
0.00103286
-7.65435e-06
-6.22789e-05
0.00103286
-7.65435e-06
-6.22789e-05
0.00103286
-7.65435e-06
-6.22789e-05
0.00103286
-7.65435e-06
-6.22789e-05
0.00103286
-7.65435e-06
-6.22789e-05
0.00103286
-7.65435e-06
-6.22789e-05
0.00103286
-7.65435e-06
-6.22789e-05
0.00103286
-7.65435e-06
-6.22789e-05
0.00103286
-7.65435e-06
-6.22789e-05
0.00103286
-7.65435e-06
-6.22789e-05
0.00103286
-7.65435e-06
-6.22789e-05
0.00103286
-7.65435e-06
-6.22789e-05
0.00103286
-7.65435e-06
-6.22789e-05
0.00103286
-7.65435e-06
-6.22789e-05
0.00103286
-7.65435e-06
-6.22789e-05
0.00103286
-7.65435e-06
-6.22789e-05
0.00103286
-7.65435e-06
-6.22789e-05
0.00103286
-7.65435e-06
-6.22789e-05
0.00103286
-7.65435e-06
-1.09223e-05
-1.09208e-05
-1.42e-05
1.19653
1.20479
1.21317
1.22166
1.23027
1.23901
1.24787
1.25685
1.26597
1.27522
1.28461
1.29413
1.3038
1.31362
1.32358
1.33369
1.34396
1.35439
1.36499
1.37575
1.38668
2.29598e-06
-0.021156
-0.0213157
-0.0214777
-0.0216423
-0.0218093
-0.021979
-0.0221513
-0.0223263
-0.022504
-0.0226846
-0.0228681
-0.0230545
-0.023244
-0.0234366
-0.0236324
-0.0238315
-0.0240339
-0.0242398
-0.0244492
-0.0246621
-0.0248789
-7.62133e-06
-0.0198728
-0.0200138
-0.0201569
-0.0203019
-0.0204491
-0.0205985
-0.02075
-0.0209038
-0.0210599
-0.0212183
-0.0213791
-0.0215424
-0.0217082
-0.0218765
-0.0220475
-0.0222212
-0.0223976
-0.0225769
-0.022759
-0.0229441
-0.0231323
-7.62094e-06
-0.0199583
-0.0200996
-0.020243
-0.0203884
-0.020536
-0.0206856
-0.0208375
-0.0209916
-0.0211481
-0.0213068
-0.021468
-0.0216316
-0.0217977
-0.0219665
-0.0221378
-0.0223118
-0.0224886
-0.0226682
-0.0228507
-0.0230361
-0.0232246
-7.62092e-06
-0.0200454
-0.0201871
-0.0203309
-0.0204767
-0.0206246
-0.0207746
-0.0209268
-0.0210813
-0.0212381
-0.0213973
-0.0215588
-0.0217228
-0.0218893
-0.0220584
-0.0222301
-0.0224045
-0.0225817
-0.0227616
-0.0229445
-0.0231304
-0.0233192
-7.62089e-06
-0.0201342
-0.0202763
-0.0204205
-0.0205666
-0.0207149
-0.0208654
-0.021018
-0.0211729
-0.0213301
-0.0214896
-0.0216516
-0.021816
-0.0219829
-0.0221524
-0.0223245
-0.0224993
-0.0226769
-0.0228573
-0.0230405
-0.0232268
-0.0234161
-7.62087e-06
-0.0202247
-0.0203672
-0.0205118
-0.0206584
-0.0208071
-0.0209579
-0.021111
-0.0212663
-0.0214239
-0.0215839
-0.0217462
-0.0219111
-0.0220784
-0.0222483
-0.0224209
-0.0225962
-0.0227742
-0.022955
-0.0231387
-0.0233254
-0.0235152
-7.62085e-06
-0.0203169
-0.0204598
-0.0206048
-0.0207518
-0.0209009
-0.0210523
-0.0212058
-0.0213615
-0.0215196
-0.02168
-0.0218428
-0.0220081
-0.0221759
-0.0223463
-0.0225194
-0.0226951
-0.0228736
-0.0230549
-0.0232391
-0.0234263
-0.0236165
-7.62082e-06
-0.0204107
-0.0205541
-0.0206995
-0.020847
-0.0209966
-0.0211484
-0.0213024
-0.0214586
-0.0216171
-0.0217781
-0.0219414
-0.0221072
-0.0222755
-0.0224463
-0.0226199
-0.0227961
-0.0229751
-0.023157
-0.0233417
-0.0235294
-0.0237201
-7.6208e-06
-0.0205019
-0.0206457
-0.0207916
-0.0209396
-0.0210896
-0.0212419
-0.0213963
-0.021553
-0.021712
-0.0218734
-0.0220372
-0.0222035
-0.0223723
-0.0225437
-0.0227177
-0.0228944
-0.0230739
-0.0232562
-0.0234415
-0.0236297
-0.023821
-7.62722e-06
-0.0205423
-0.0206862
-0.0208322
-0.0209803
-0.0211304
-0.0212828
-0.0214373
-0.0215942
-0.0217533
-0.0219148
-0.0220787
-0.0222451
-0.022414
-0.0225854
-0.0227596
-0.0229364
-0.023116
-0.0232985
-0.0234838
-0.0236721
-0.0238635
-7.71125e-06
-0.020583
-0.0207271
-0.0208732
-0.0210213
-0.0211716
-0.0213241
-0.0214788
-0.0216357
-0.021795
-0.0219565
-0.0221206
-0.0222871
-0.0224561
-0.0226277
-0.0228019
-0.0229788
-0.0231585
-0.0233411
-0.0235265
-0.0237149
-0.0239064
-7.7952e-06
-0.0206244
-0.0207686
-0.0209148
-0.0210632
-0.0212136
-0.0213662
-0.021521
-0.021678
-0.0218374
-0.0219991
-0.0221633
-0.0223299
-0.022499
-0.0226707
-0.0228451
-0.0230221
-0.023202
-0.0233846
-0.0235702
-0.0237587
-0.0239503
-7.8793e-06
-0.0206665
-0.0208109
-0.0209572
-0.0211057
-0.0212563
-0.021409
-0.0215639
-0.0217211
-0.0218806
-0.0220425
-0.0222068
-0.0223735
-0.0225428
-0.0227147
-0.0228891
-0.0230663
-0.0232463
-0.0234291
-0.0236148
-0.0238034
-0.0239951
-7.96355e-06
-0.0207093
-0.0208538
-0.0210004
-0.021149
-0.0212997
-0.0214525
-0.0216076
-0.021765
-0.0219247
-0.0220867
-0.0222511
-0.022418
-0.0225874
-0.0227594
-0.0229341
-0.0231114
-0.0232915
-0.0234744
-0.0236603
-0.0238491
-0.0240409
-8.04792e-06
-0.0207528
-0.0208975
-0.0210442
-0.0211929
-0.0213438
-0.0214969
-0.0216521
-0.0218096
-0.0219695
-0.0221317
-0.0222962
-0.0224633
-0.0226329
-0.022805
-0.0229799
-0.0231573
-0.0233376
-0.0235207
-0.0237067
-0.0238957
-0.0240877
-8.13242e-06
-0.020797
-0.0209418
-0.0210887
-0.0212376
-0.0213887
-0.0215419
-0.0216973
-0.021855
-0.022015
-0.0221774
-0.0223422
-0.0225094
-0.0226792
-0.0228515
-0.0230265
-0.0232042
-0.0233846
-0.0235679
-0.0237541
-0.0239432
-0.0241354
-8.21702e-06
-0.0208418
-0.0209869
-0.0211339
-0.021283
-0.0214343
-0.0215877
-0.0217433
-0.0219012
-0.0220614
-0.0222239
-0.0223889
-0.0225563
-0.0227263
-0.0228988
-0.023074
-0.0232519
-0.0234325
-0.023616
-0.0238023
-0.0239916
-0.024184
-8.30172e-06
-0.0208874
-0.0210326
-0.0211798
-0.0213292
-0.0214806
-0.0216342
-0.02179
-0.0219481
-0.0221085
-0.0222712
-0.0224364
-0.0226041
-0.0227742
-0.022947
-0.0231223
-0.0233004
-0.0234813
-0.0236649
-0.0238515
-0.024041
-0.0242336
-8.3865e-06
-0.0209336
-0.021079
-0.0212264
-0.021376
-0.0215276
-0.0216814
-0.0218375
-0.0219958
-0.0221564
-0.0223194
-0.0224847
-0.0226526
-0.022823
-0.0229959
-0.0231715
-0.0233498
-0.0235309
-0.0237148
-0.0239016
-0.0240913
-0.0242842
-8.47136e-06
-0.0209804
-0.0211261
-0.0212737
-0.0214235
-0.0215754
-0.0217294
-0.0218857
-0.0220442
-0.022205
-0.0223682
-0.0225338
-0.0227019
-0.0228725
-0.0230457
-0.0232215
-0.0234001
-0.0235814
-0.0237655
-0.0239526
-0.0241426
-0.0243356
-8.55629e-06
-0.021028
-0.0211738
-0.0213217
-0.0214717
-0.0216238
-0.0217781
-0.0219346
-0.0220933
-0.0222544
-0.0224178
-0.0225837
-0.022752
-0.0229229
-0.0230963
-0.0232724
-0.0234512
-0.0236327
-0.0238171
-0.0240044
-0.0241947
-0.024388
-8.64126e-06
-0.0210762
-0.0212223
-0.0213704
-0.0215206
-0.021673
-0.0218275
-0.0219842
-0.0221432
-0.0223046
-0.0224682
-0.0226343
-0.0228029
-0.022974
-0.0231478
-0.0233241
-0.0235031
-0.023685
-0.0238696
-0.0240572
-0.0242477
-0.0244413
-8.72628e-06
-0.021125
-0.0212714
-0.0214197
-0.0215702
-0.0217228
-0.0218776
-0.0220346
-0.0221939
-0.0223554
-0.0225194
-0.0226858
-0.0228546
-0.023026
-0.0232
-0.0233766
-0.0235559
-0.0237381
-0.023923
-0.0241108
-0.0243017
-0.0244955
-8.81132e-06
-0.0220302
-0.0221824
-0.0223367
-0.0224932
-0.0226518
-0.0228128
-0.022976
-0.0231416
-0.0233096
-0.0234801
-0.023653
-0.0238286
-0.0240067
-0.0241876
-0.0243712
-0.0245576
-0.0247468
-0.024939
-0.0251343
-0.0253326
-0.025534
-1.01604e-05
)
;

boundaryField
{
    inlet
    {
        type            calculated;
        value           uniform 0;
    }
    outlet2
    {
        type            calculated;
        value           uniform 0;
    }
    outlet1
    {
        type            calculated;
        value           uniform 0;
    }
    wall
    {
        type            calculated;
        value           uniform 0;
    }
    symmetryBottom
    {
        type            symmetry;
    }
    symmetryZ0
    {
        type            symmetry;
    }
    symmetryZ05
    {
        type            symmetry;
    }
}


// ************************************************************************* //
