/*--------------------------------*- C++ -*----------------------------------*\
| =========                 |                                                 |
| \\      /  F ield         | OpenFOAM: The Open Source CFD Toolbox           |
|  \\    /   O peration     | Version:  2412                                  |
|   \\  /    A nd           | Website:  www.openfoam.com                      |
|    \\/     M anipulation  |                                                 |
\*---------------------------------------------------------------------------*/
FoamFile
{
    version     2.0;
    format      ascii;
    arch        "LSB;label=32;scalar=64";
    class       volScalarField;
    location    "1.66832e-07";
    object      p;
}
// * * * * * * * * * * * * * * * * * * * * * * * * * * * * * * * * * * * * * //

dimensions      [0 0 0 0 0 0 0];

internalField   nonuniform List<scalar> 
625
(
1.17025
1.13928
1.13928
1.17025
1.13928
1.13928
1.17025
1.13928
1.13928
1.17025
1.13928
1.13928
1.17025
1.13928
1.13928
1.17025
1.13928
1.13928
1.17025
1.13928
1.13928
1.17025
1.13928
1.13928
1.17025
1.13928
1.13928
1.17025
1.13928
1.13928
1.17025
1.13928
1.13928
1.17025
1.13928
1.13928
1.17025
1.13928
1.13928
1.17025
1.13928
1.13928
1.17025
1.13928
1.13928
1.17025
1.13928
1.13928
1.17025
1.13928
1.13928
1.17025
1.13928
1.13928
1.17025
1.13928
1.13928
1.17025
1.13928
1.13928
1.17025
1.13928
1.13928
1.17025
1.13928
1.13928
1.17025
1.13928
1.13928
1.17025
1.13928
1.13928
1.17025
1.13927
1.13927
1.1755
1.17572
1.17594
1.17616
1.17638
1.17661
1.17684
1.17708
1.17732
1.17756
1.17781
1.17806
1.17831
1.17857
1.17883
1.17909
1.17936
1.17964
1.17992
1.1802
1.18049
1.18069
1.14884
1.14887
1.1489
1.14892
1.14895
1.14898
1.14901
1.14904
1.14907
1.1491
1.14913
1.14916
1.14919
1.14922
1.14926
1.14929
1.14932
1.14936
1.14939
1.14943
1.14946
1.14966
1.14869
1.14872
1.14874
1.14877
1.1488
1.14883
1.14885
1.14888
1.14891
1.14894
1.14897
1.149
1.14903
1.14906
1.14909
1.14912
1.14916
1.14919
1.14922
1.14926
1.14929
1.14949
1.14852
1.14855
1.14857
1.1486
1.14862
1.14865
1.14867
1.1487
1.14873
1.14876
1.14879
1.14881
1.14884
1.14887
1.1489
1.14893
1.14896
1.149
1.14903
1.14906
1.14909
1.14929
1.14835
1.14837
1.1484
1.14842
1.14845
1.14847
1.1485
1.14852
1.14855
1.14857
1.1486
1.14863
1.14866
1.14868
1.14871
1.14874
1.14877
1.1488
1.14883
1.14886
1.14889
1.14909
1.14818
1.1482
1.14822
1.14825
1.14827
1.14829
1.14832
1.14834
1.14837
1.14839
1.14842
1.14844
1.14847
1.1485
1.14852
1.14855
1.14858
1.14861
1.14864
1.14867
1.1487
1.14889
1.14801
1.14803
1.14805
1.14807
1.14809
1.14812
1.14814
1.14816
1.14819
1.14821
1.14823
1.14826
1.14828
1.14831
1.14833
1.14836
1.14839
1.14841
1.14844
1.14847
1.1485
1.14869
1.14783
1.14785
1.14788
1.1479
1.14792
1.14794
1.14796
1.14798
1.148
1.14803
1.14805
1.14807
1.1481
1.14812
1.14814
1.14817
1.14819
1.14822
1.14825
1.14827
1.1483
1.1485
1.14766
1.14768
1.1477
1.14772
1.14774
1.14776
1.14778
1.1478
1.14782
1.14784
1.14787
1.14789
1.14791
1.14793
1.14795
1.14798
1.148
1.14803
1.14805
1.14807
1.1481
1.1483
1.14749
1.14751
1.14753
1.14755
1.14756
1.14758
1.1476
1.14762
1.14764
1.14766
1.14768
1.1477
1.14772
1.14774
1.14777
1.14779
1.14781
1.14783
1.14785
1.14788
1.1479
1.1481
1.14732
1.14734
1.14735
1.14737
1.14739
1.14741
1.14742
1.14744
1.14746
1.14748
1.1475
1.14752
1.14754
1.14756
1.14758
1.1476
1.14762
1.14764
1.14766
1.14768
1.1477
1.1479
1.14715
1.14716
1.14718
1.1472
1.14721
1.14723
1.14725
1.14726
1.14728
1.1473
1.14731
1.14733
1.14735
1.14737
1.14739
1.14741
1.14742
1.14744
1.14746
1.14748
1.1475
1.1477
1.14698
1.14699
1.14701
1.14702
1.14704
1.14705
1.14707
1.14708
1.1471
1.14711
1.14713
1.14715
1.14716
1.14718
1.1472
1.14721
1.14723
1.14725
1.14727
1.14729
1.14731
1.1475
1.14681
1.14682
1.14683
1.14685
1.14686
1.14687
1.14689
1.1469
1.14692
1.14693
1.14695
1.14696
1.14698
1.14699
1.14701
1.14702
1.14704
1.14706
1.14707
1.14709
1.14711
1.1473
1.14664
1.14665
1.14666
1.14667
1.14668
1.1467
1.14671
1.14672
1.14674
1.14675
1.14676
1.14678
1.14679
1.1468
1.14682
1.14683
1.14685
1.14686
1.14688
1.14689
1.14691
1.14711
1.14646
1.14648
1.14649
1.1465
1.14651
1.14652
1.14653
1.14654
1.14655
1.14657
1.14658
1.14659
1.1466
1.14662
1.14663
1.14664
1.14666
1.14667
1.14668
1.1467
1.14671
1.14691
1.14629
1.1463
1.14631
1.14632
1.14633
1.14634
1.14635
1.14636
1.14637
1.14638
1.14639
1.14641
1.14642
1.14643
1.14644
1.14645
1.14646
1.14647
1.14649
1.1465
1.14651
1.14671
1.14612
1.14613
1.14614
1.14615
1.14616
1.14617
1.14617
1.14618
1.14619
1.1462
1.14621
1.14622
1.14623
1.14624
1.14625
1.14626
1.14627
1.14628
1.14629
1.1463
1.14631
1.14651
1.14595
1.14596
1.14597
1.14597
1.14598
1.14599
1.146
1.146
1.14601
1.14602
1.14603
1.14604
1.14604
1.14605
1.14606
1.14607
1.14608
1.14609
1.1461
1.14611
1.14612
1.14631
1.14578
1.14579
1.14579
1.1458
1.1458
1.14581
1.14582
1.14582
1.14583
1.14584
1.14584
1.14585
1.14586
1.14586
1.14587
1.14588
1.14589
1.14589
1.1459
1.14591
1.14592
1.14611
1.14561
1.14561
1.14562
1.14562
1.14563
1.14563
1.14564
1.14564
1.14565
1.14565
1.14566
1.14567
1.14567
1.14568
1.14568
1.14569
1.14569
1.1457
1.14571
1.14571
1.14572
1.14592
1.14544
1.14544
1.14545
1.14545
1.14545
1.14546
1.14546
1.14546
1.14547
1.14547
1.14548
1.14548
1.14548
1.14549
1.14549
1.1455
1.1455
1.14551
1.14551
1.14552
1.14552
1.14572
1.14527
1.14527
1.14527
1.14527
1.14528
1.14528
1.14528
1.14528
1.14529
1.14529
1.14529
1.1453
1.1453
1.1453
1.1453
1.14531
1.14531
1.14531
1.14532
1.14532
1.14532
1.14552
1.1451
1.1451
1.1451
1.1451
1.1451
1.1451
1.1451
1.1451
1.14511
1.14511
1.14511
1.14511
1.14511
1.14511
1.14511
1.14512
1.14512
1.14512
1.14512
1.14512
1.14512
1.14532
1.14492
1.14492
1.14492
1.14492
1.14492
1.14492
1.14492
1.14492
1.14492
1.14492
1.14492
1.14492
1.14492
1.14492
1.14492
1.14492
1.14492
1.14492
1.14492
1.14492
1.14492
1.14512
)
;

boundaryField
{
    inlet
    {
        type            calculated;
        value           uniform 0;
    }
    outlet2
    {
        type            calculated;
        value           uniform 0;
    }
    outlet1
    {
        type            calculated;
        value           uniform 0;
    }
    wall
    {
        type            calculated;
        value           uniform 0;
    }
    symmetryBottom
    {
        type            symmetry;
    }
    symmetryZ0
    {
        type            symmetry;
    }
    symmetryZ05
    {
        type            symmetry;
    }
}


// ************************************************************************* //
