/*--------------------------------*- C++ -*----------------------------------*\
| =========                 |                                                 |
| \\      /  F ield         | OpenFOAM: The Open Source CFD Toolbox           |
|  \\    /   O peration     | Version:  2412                                  |
|   \\  /    A nd           | Website:  www.openfoam.com                      |
|    \\/     M anipulation  |                                                 |
\*---------------------------------------------------------------------------*/
FoamFile
{
    version     2.0;
    format      ascii;
    arch        "LSB;label=32;scalar=64";
    class       volScalarField;
    location    "1.66832e-07";
    object      rho_dof1;
}
// * * * * * * * * * * * * * * * * * * * * * * * * * * * * * * * * * * * * * //

dimensions      [0 0 0 0 0 0 0];

internalField   nonuniform List<scalar> 
625
(
2.20289e-06
-1.54985e-19
-3.51949e-10
2.20289e-06
-1.5551e-19
-2.60158e-10
2.20289e-06
-1.56066e-19
-2.90727e-10
2.20289e-06
-1.55415e-19
-2.90727e-10
2.20289e-06
-1.55589e-19
-2.90727e-10
2.20289e-06
-1.55812e-19
-2.90727e-10
2.20289e-06
-1.55621e-19
-2.90727e-10
2.20289e-06
-1.55717e-19
-2.90727e-10
2.20289e-06
-1.55669e-19
-2.90727e-10
2.20289e-06
-1.55494e-19
-2.90727e-10
2.20289e-06
-1.55701e-19
-2.90727e-10
2.20289e-06
-1.55685e-19
-2.90727e-10
2.20289e-06
-1.55335e-19
-2.90727e-10
2.20289e-06
-1.55907e-19
-2.90727e-10
2.20289e-06
-1.55987e-19
-2.90727e-10
2.20289e-06
-1.55828e-19
-2.90727e-10
2.20289e-06
-1.56702e-19
-2.90727e-10
2.20289e-06
-1.55112e-19
-2.90727e-10
2.20289e-06
-1.55748e-19
-2.90727e-10
2.20289e-06
-1.55812e-19
-2.90727e-10
2.20289e-06
-1.55271e-19
-2.90727e-10
2.20289e-06
-1.55907e-19
-2.90727e-10
2.20289e-06
-1.55303e-19
-2.90727e-10
2.20289e-06
-1.5613e-19
-2.90727e-10
2.2032e-06
1.03334e-21
-5.09834e-12
-6.08525e-09
-6.12729e-09
-6.16991e-09
-6.21312e-09
-6.25695e-09
-6.3014e-09
-6.34649e-09
-6.39222e-09
-6.43862e-09
-6.4857e-09
-6.53347e-09
-6.58195e-09
-6.63116e-09
-6.68111e-09
-6.73181e-09
-6.78329e-09
-6.83556e-09
-6.88865e-09
-6.94257e-09
-6.99734e-09
-7.05297e-09
-3.46379e-07
-6.09707e-09
-6.13927e-09
-6.18206e-09
-6.22545e-09
-6.26945e-09
-6.31408e-09
-6.35934e-09
-6.40527e-09
-6.45186e-09
-6.49913e-09
-6.5471e-09
-6.59578e-09
-6.6452e-09
-6.69535e-09
-6.74628e-09
-6.79798e-09
-6.85048e-09
-6.9038e-09
-6.95796e-09
-7.01296e-09
-7.06886e-09
6.95386e-09
-6.09672e-09
-6.13892e-09
-6.1817e-09
-6.22509e-09
-6.26908e-09
-6.3137e-09
-6.35897e-09
-6.40488e-09
-6.45147e-09
-6.49873e-09
-6.5467e-09
-6.59538e-09
-6.64478e-09
-6.69494e-09
-6.74585e-09
-6.79755e-09
-6.85004e-09
-6.90336e-09
-6.9575e-09
-7.01251e-09
-7.06839e-09
6.48055e-09
-6.09638e-09
-6.13857e-09
-6.18135e-09
-6.22472e-09
-6.26872e-09
-6.31333e-09
-6.35859e-09
-6.4045e-09
-6.45108e-09
-6.49834e-09
-6.5463e-09
-6.59497e-09
-6.64437e-09
-6.69452e-09
-6.74543e-09
-6.79712e-09
-6.8496e-09
-6.90291e-09
-6.95705e-09
-7.01205e-09
-7.06792e-09
6.50575e-09
-6.09603e-09
-6.13822e-09
-6.18099e-09
-6.22436e-09
-6.26835e-09
-6.31296e-09
-6.35821e-09
-6.40412e-09
-6.45069e-09
-6.49795e-09
-6.5459e-09
-6.59456e-09
-6.64396e-09
-6.6941e-09
-6.74501e-09
-6.79669e-09
-6.84917e-09
-6.90247e-09
-6.9566e-09
-7.01159e-09
-7.06746e-09
6.53157e-09
-6.09568e-09
-6.13786e-09
-6.18064e-09
-6.224e-09
-6.26798e-09
-6.31259e-09
-6.35784e-09
-6.40373e-09
-6.45031e-09
-6.49755e-09
-6.5455e-09
-6.59416e-09
-6.64355e-09
-6.69369e-09
-6.74458e-09
-6.79626e-09
-6.84873e-09
-6.90202e-09
-6.95615e-09
-7.01114e-09
-7.06699e-09
6.55801e-09
-6.09534e-09
-6.13751e-09
-6.18027e-09
-6.22364e-09
-6.26762e-09
-6.31222e-09
-6.35746e-09
-6.40335e-09
-6.44991e-09
-6.49716e-09
-6.5451e-09
-6.59376e-09
-6.64314e-09
-6.69326e-09
-6.74416e-09
-6.79583e-09
-6.84829e-09
-6.90158e-09
-6.9557e-09
-7.01067e-09
-7.06653e-09
6.58508e-09
-6.09499e-09
-6.13716e-09
-6.17992e-09
-6.22328e-09
-6.26725e-09
-6.31185e-09
-6.35708e-09
-6.40297e-09
-6.44953e-09
-6.49676e-09
-6.5447e-09
-6.59335e-09
-6.64272e-09
-6.69285e-09
-6.74373e-09
-6.79539e-09
-6.84786e-09
-6.90113e-09
-6.95525e-09
-7.01022e-09
-7.06606e-09
6.61276e-09
-6.09464e-09
-6.13681e-09
-6.17956e-09
-6.22292e-09
-6.26689e-09
-6.31147e-09
-6.35671e-09
-6.40259e-09
-6.44914e-09
-6.49638e-09
-6.5443e-09
-6.59294e-09
-6.64232e-09
-6.69243e-09
-6.74331e-09
-6.79497e-09
-6.84742e-09
-6.90069e-09
-6.95479e-09
-7.00976e-09
-7.0656e-09
6.64106e-09
-6.09429e-09
-6.13645e-09
-6.1792e-09
-6.22255e-09
-6.26651e-09
-6.3111e-09
-6.35632e-09
-6.4022e-09
-6.44875e-09
-6.49597e-09
-6.5439e-09
-6.59253e-09
-6.6419e-09
-6.69201e-09
-6.74288e-09
-6.79453e-09
-6.84698e-09
-6.90024e-09
-6.95434e-09
-7.00929e-09
-7.06512e-09
6.66859e-09
-6.09389e-09
-6.13605e-09
-6.17879e-09
-6.22213e-09
-6.26609e-09
-6.31066e-09
-6.35589e-09
-6.40176e-09
-6.44829e-09
-6.49552e-09
-6.54343e-09
-6.59206e-09
-6.64142e-09
-6.69152e-09
-6.74239e-09
-6.79403e-09
-6.84647e-09
-6.89972e-09
-6.95382e-09
-7.00876e-09
-7.06458e-09
6.67968e-09
-6.09349e-09
-6.13564e-09
-6.17838e-09
-6.22171e-09
-6.26566e-09
-6.31023e-09
-6.35545e-09
-6.40131e-09
-6.44785e-09
-6.49506e-09
-6.54297e-09
-6.59159e-09
-6.64094e-09
-6.69104e-09
-6.74189e-09
-6.79353e-09
-6.84596e-09
-6.89921e-09
-6.95329e-09
-7.00823e-09
-7.06404e-09
6.69078e-09
-6.09308e-09
-6.13523e-09
-6.17796e-09
-6.22129e-09
-6.26523e-09
-6.3098e-09
-6.35501e-09
-6.40087e-09
-6.44739e-09
-6.4946e-09
-6.5425e-09
-6.59112e-09
-6.64046e-09
-6.69055e-09
-6.7414e-09
-6.79302e-09
-6.84545e-09
-6.89869e-09
-6.95277e-09
-7.00769e-09
-7.0635e-09
6.70217e-09
-6.09268e-09
-6.13482e-09
-6.17755e-09
-6.22087e-09
-6.26481e-09
-6.30937e-09
-6.35457e-09
-6.40042e-09
-6.44694e-09
-6.49414e-09
-6.54204e-09
-6.59065e-09
-6.63998e-09
-6.69006e-09
-6.7409e-09
-6.79252e-09
-6.84494e-09
-6.89817e-09
-6.95224e-09
-7.00716e-09
-7.06295e-09
6.71384e-09
-6.09228e-09
-6.13441e-09
-6.17713e-09
-6.22045e-09
-6.26438e-09
-6.30893e-09
-6.35413e-09
-6.39998e-09
-6.44649e-09
-6.49368e-09
-6.54157e-09
-6.59017e-09
-6.6395e-09
-6.68958e-09
-6.74041e-09
-6.79202e-09
-6.84443e-09
-6.89766e-09
-6.95171e-09
-7.00663e-09
-7.06241e-09
6.72581e-09
-6.09187e-09
-6.134e-09
-6.17671e-09
-6.22003e-09
-6.26395e-09
-6.30851e-09
-6.35369e-09
-6.39953e-09
-6.44604e-09
-6.49323e-09
-6.54111e-09
-6.5897e-09
-6.63903e-09
-6.68909e-09
-6.73992e-09
-6.79152e-09
-6.84393e-09
-6.89714e-09
-6.95119e-09
-7.00609e-09
-7.06187e-09
6.73805e-09
-6.09147e-09
-6.13359e-09
-6.1763e-09
-6.21961e-09
-6.26353e-09
-6.30807e-09
-6.35325e-09
-6.39908e-09
-6.44559e-09
-6.49276e-09
-6.54064e-09
-6.58923e-09
-6.63854e-09
-6.68861e-09
-6.73942e-09
-6.79102e-09
-6.84341e-09
-6.89662e-09
-6.95066e-09
-7.00556e-09
-7.06133e-09
6.75059e-09
-6.09107e-09
-6.13318e-09
-6.17588e-09
-6.21919e-09
-6.2631e-09
-6.30764e-09
-6.35281e-09
-6.39864e-09
-6.44513e-09
-6.49231e-09
-6.54018e-09
-6.58876e-09
-6.63807e-09
-6.68811e-09
-6.73893e-09
-6.79052e-09
-6.8429e-09
-6.8961e-09
-6.95014e-09
-7.00502e-09
-7.06079e-09
6.76341e-09
-6.09066e-09
-6.13277e-09
-6.17547e-09
-6.21877e-09
-6.26267e-09
-6.30721e-09
-6.35237e-09
-6.39819e-09
-6.44468e-09
-6.49185e-09
-6.53971e-09
-6.58828e-09
-6.63758e-09
-6.68763e-09
-6.73843e-09
-6.79001e-09
-6.8424e-09
-6.89558e-09
-6.94961e-09
-7.00449e-09
-7.06024e-09
6.77652e-09
-6.09026e-09
-6.13237e-09
-6.17505e-09
-6.21834e-09
-6.26225e-09
-6.30677e-09
-6.35194e-09
-6.39775e-09
-6.44423e-09
-6.49139e-09
-6.53924e-09
-6.58781e-09
-6.63711e-09
-6.68714e-09
-6.73794e-09
-6.78952e-09
-6.84188e-09
-6.89507e-09
-6.94908e-09
-7.00396e-09
-7.0597e-09
6.78991e-09
-6.08985e-09
-6.13195e-09
-6.17464e-09
-6.21792e-09
-6.26182e-09
-6.30634e-09
-6.35149e-09
-6.3973e-09
-6.44378e-09
-6.49093e-09
-6.53878e-09
-6.58734e-09
-6.63662e-09
-6.68666e-09
-6.73745e-09
-6.78901e-09
-6.84138e-09
-6.89455e-09
-6.94856e-09
-7.00342e-09
-7.05916e-09
6.80358e-09
-6.08945e-09
-6.13154e-09
-6.17422e-09
-6.2175e-09
-6.26139e-09
-6.3059e-09
-6.35106e-09
-6.39686e-09
-6.44332e-09
-6.49047e-09
-6.53831e-09
-6.58687e-09
-6.63615e-09
-6.68617e-09
-6.73695e-09
-6.78851e-09
-6.84086e-09
-6.89403e-09
-6.94803e-09
-7.00289e-09
-7.05862e-09
6.81754e-09
-6.08905e-09
-6.13113e-09
-6.17381e-09
-6.21708e-09
-6.26096e-09
-6.30547e-09
-6.35062e-09
-6.39641e-09
-6.44287e-09
-6.49001e-09
-6.53785e-09
-6.58639e-09
-6.63566e-09
-6.68568e-09
-6.73645e-09
-6.78801e-09
-6.84035e-09
-6.89352e-09
-6.94751e-09
-7.00236e-09
-7.05807e-09
6.83178e-09
-6.08864e-09
-6.13073e-09
-6.17339e-09
-6.21666e-09
-6.26053e-09
-6.30504e-09
-6.35017e-09
-6.39597e-09
-6.44242e-09
-6.48956e-09
-6.53738e-09
-6.58592e-09
-6.63519e-09
-6.68519e-09
-6.73596e-09
-6.7875e-09
-6.83985e-09
-6.89299e-09
-6.94698e-09
-7.00182e-09
-7.05753e-09
6.8463e-09
-6.0891e-09
-6.13119e-09
-6.17386e-09
-6.21714e-09
-6.26102e-09
-6.30553e-09
-6.35067e-09
-6.39647e-09
-6.44293e-09
-6.49007e-09
-6.53791e-09
-6.58646e-09
-6.63573e-09
-6.68575e-09
-6.73652e-09
-6.78807e-09
-6.84042e-09
-6.89358e-09
-6.94758e-09
-7.00242e-09
-7.05814e-09
7.13248e-09
)
;

boundaryField
{
    inlet
    {
        type            calculated;
        value           uniform 0;
    }
    outlet2
    {
        type            calculated;
        value           uniform 0;
    }
    outlet1
    {
        type            calculated;
        value           uniform 0;
    }
    wall
    {
        type            calculated;
        value           uniform 0;
    }
    symmetryBottom
    {
        type            symmetry;
    }
    symmetryZ0
    {
        type            symmetry;
    }
    symmetryZ05
    {
        type            symmetry;
    }
}


// ************************************************************************* //
