/*--------------------------------*- C++ -*----------------------------------*\
| =========                 |                                                 |
| \\      /  F ield         | OpenFOAM: The Open Source CFD Toolbox           |
|  \\    /   O peration     | Version:  2412                                  |
|   \\  /    A nd           | Website:  www.openfoam.com                      |
|    \\/     M anipulation  |                                                 |
\*---------------------------------------------------------------------------*/
FoamFile
{
    version     2.0;
    format      ascii;
    arch        "LSB;label=32;scalar=64";
    class       volScalarField;
    location    "1.66832e-07";
    object      rho_dof2;
}
// * * * * * * * * * * * * * * * * * * * * * * * * * * * * * * * * * * * * * //

dimensions      [0 0 0 0 0 0 0];

internalField   nonuniform List<scalar> 
625
(
4.48461e-11
3.51029e-10
-3.06725e-13
-4.79693e-11
2.58018e-10
-2.13929e-12
-1.74012e-11
2.88586e-10
-2.13888e-12
-1.74012e-11
2.88586e-10
-2.13888e-12
-1.74012e-11
2.88586e-10
-2.13888e-12
-1.74012e-11
2.88586e-10
-2.13888e-12
-1.74012e-11
2.88586e-10
-2.13888e-12
-1.74012e-11
2.88586e-10
-2.13888e-12
-1.74012e-11
2.88586e-10
-2.13888e-12
-1.74012e-11
2.88586e-10
-2.13888e-12
-1.74012e-11
2.88586e-10
-2.13888e-12
-1.74012e-11
2.88586e-10
-2.13888e-12
-1.74012e-11
2.88586e-10
-2.13888e-12
-1.74012e-11
2.88586e-10
-2.13888e-12
-1.74012e-11
2.88586e-10
-2.13888e-12
-1.74012e-11
2.88586e-10
-2.13888e-12
-1.74012e-11
2.88586e-10
-2.13888e-12
-1.74012e-11
2.88586e-10
-2.13888e-12
-1.74012e-11
2.88586e-10
-2.13888e-12
-1.74012e-11
2.88586e-10
-2.13888e-12
-1.74012e-11
2.88586e-10
-2.13888e-12
-1.74012e-11
2.88586e-10
-2.13888e-12
-1.74012e-11
2.88586e-10
-2.13888e-12
-1.74012e-11
2.88586e-10
-2.13888e-12
-3.05171e-12
-3.05169e-12
-3.96807e-12
2.99004e-07
3.01062e-07
3.03149e-07
3.05264e-07
3.0741e-07
3.09586e-07
3.11792e-07
3.14031e-07
3.16302e-07
3.18605e-07
3.20943e-07
3.23315e-07
3.25723e-07
3.28167e-07
3.30647e-07
3.33166e-07
3.35723e-07
3.3832e-07
3.40957e-07
3.43635e-07
3.46356e-07
6.05439e-13
-5.90804e-09
-5.95254e-09
-5.99772e-09
-6.04358e-09
-6.09013e-09
-6.13741e-09
-6.18542e-09
-6.23419e-09
-6.28372e-09
-6.33404e-09
-6.38517e-09
-6.43712e-09
-6.48992e-09
-6.54358e-09
-6.59814e-09
-6.6536e-09
-6.71e-09
-6.76734e-09
-6.82568e-09
-6.88501e-09
-6.94539e-09
-2.12934e-12
-5.56063e-09
-5.60008e-09
-5.64009e-09
-5.68068e-09
-5.72185e-09
-5.76363e-09
-5.80602e-09
-5.84903e-09
-5.89269e-09
-5.93701e-09
-5.98199e-09
-6.02767e-09
-6.07404e-09
-6.12113e-09
-6.16896e-09
-6.21754e-09
-6.26689e-09
-6.31703e-09
-6.36798e-09
-6.41976e-09
-6.47238e-09
-2.12934e-12
-5.58424e-09
-5.62378e-09
-5.66389e-09
-5.70457e-09
-5.74584e-09
-5.7877e-09
-5.83019e-09
-5.8733e-09
-5.91705e-09
-5.96146e-09
-6.00655e-09
-6.05231e-09
-6.09878e-09
-6.14597e-09
-6.1939e-09
-6.24257e-09
-6.29202e-09
-6.34226e-09
-6.3933e-09
-6.44517e-09
-6.49789e-09
-2.12934e-12
-5.60831e-09
-5.64795e-09
-5.68815e-09
-5.72894e-09
-5.7703e-09
-5.81228e-09
-5.85486e-09
-5.89808e-09
-5.94193e-09
-5.98645e-09
-6.03163e-09
-6.0775e-09
-6.12408e-09
-6.17137e-09
-6.2194e-09
-6.26818e-09
-6.31773e-09
-6.36807e-09
-6.41922e-09
-6.4712e-09
-6.52403e-09
-2.12934e-12
-5.63284e-09
-5.67259e-09
-5.7129e-09
-5.75379e-09
-5.79527e-09
-5.83734e-09
-5.88004e-09
-5.92336e-09
-5.96733e-09
-6.01195e-09
-6.05725e-09
-6.10323e-09
-6.14991e-09
-6.19732e-09
-6.24546e-09
-6.29436e-09
-6.34402e-09
-6.39448e-09
-6.44574e-09
-6.49784e-09
-6.55077e-09
-2.12934e-12
-5.65784e-09
-5.6977e-09
-5.73812e-09
-5.77912e-09
-5.82071e-09
-5.86291e-09
-5.90572e-09
-5.94916e-09
-5.99324e-09
-6.03798e-09
-6.0834e-09
-6.1295e-09
-6.17631e-09
-6.22383e-09
-6.27209e-09
-6.32111e-09
-6.3709e-09
-6.42148e-09
-6.47287e-09
-6.52508e-09
-6.57815e-09
-2.12934e-12
-5.68329e-09
-5.72327e-09
-5.76381e-09
-5.80494e-09
-5.84665e-09
-5.88897e-09
-5.9319e-09
-5.97546e-09
-6.01967e-09
-6.06454e-09
-6.11008e-09
-6.15631e-09
-6.20324e-09
-6.2509e-09
-6.29929e-09
-6.34844e-09
-6.39836e-09
-6.44907e-09
-6.50059e-09
-6.55294e-09
-6.60614e-09
-2.12934e-12
-5.70921e-09
-5.74932e-09
-5.78998e-09
-5.83123e-09
-5.87308e-09
-5.91552e-09
-5.95859e-09
-6.00228e-09
-6.04662e-09
-6.09162e-09
-6.13729e-09
-6.18366e-09
-6.23073e-09
-6.27852e-09
-6.32705e-09
-6.37635e-09
-6.4264e-09
-6.47726e-09
-6.52892e-09
-6.58141e-09
-6.63476e-09
-2.12934e-12
-5.73437e-09
-5.77459e-09
-5.81539e-09
-5.85677e-09
-5.89873e-09
-5.94131e-09
-5.9845e-09
-6.02832e-09
-6.0728e-09
-6.11793e-09
-6.16374e-09
-6.21023e-09
-6.25744e-09
-6.30537e-09
-6.35404e-09
-6.40346e-09
-6.45366e-09
-6.50465e-09
-6.55646e-09
-6.6091e-09
-6.66258e-09
-2.13114e-12
-5.74517e-09
-5.78543e-09
-5.82625e-09
-5.86766e-09
-5.90965e-09
-5.95225e-09
-5.99548e-09
-6.03933e-09
-6.08383e-09
-6.12899e-09
-6.17483e-09
-6.22135e-09
-6.26858e-09
-6.31653e-09
-6.36523e-09
-6.41468e-09
-6.4649e-09
-6.51592e-09
-6.56775e-09
-6.62041e-09
-6.67392e-09
-2.15463e-12
-5.75609e-09
-5.79638e-09
-5.83723e-09
-5.87866e-09
-5.92069e-09
-5.96332e-09
-6.00658e-09
-6.05046e-09
-6.09499e-09
-6.14017e-09
-6.18604e-09
-6.23259e-09
-6.27985e-09
-6.32784e-09
-6.37655e-09
-6.42603e-09
-6.47628e-09
-6.52732e-09
-6.57917e-09
-6.63186e-09
-6.68539e-09
-2.1781e-12
-5.76722e-09
-5.80754e-09
-5.84843e-09
-5.8899e-09
-5.93196e-09
-5.97463e-09
-6.0179e-09
-6.06182e-09
-6.10638e-09
-6.15161e-09
-6.1975e-09
-6.24408e-09
-6.29138e-09
-6.33939e-09
-6.38814e-09
-6.43764e-09
-6.48793e-09
-6.53899e-09
-6.59088e-09
-6.64358e-09
-6.69715e-09
-2.20161e-12
-5.77856e-09
-5.81891e-09
-5.85984e-09
-5.90135e-09
-5.94345e-09
-5.98614e-09
-6.02947e-09
-6.07342e-09
-6.11802e-09
-6.16327e-09
-6.2092e-09
-6.25582e-09
-6.30315e-09
-6.3512e-09
-6.39998e-09
-6.44952e-09
-6.49984e-09
-6.55094e-09
-6.60286e-09
-6.6556e-09
-6.70919e-09
-2.22516e-12
-5.79011e-09
-5.83051e-09
-5.87147e-09
-5.91302e-09
-5.95516e-09
-5.9979e-09
-6.04126e-09
-6.08525e-09
-6.12989e-09
-6.17518e-09
-6.22115e-09
-6.26781e-09
-6.31518e-09
-6.36327e-09
-6.41209e-09
-6.46167e-09
-6.51202e-09
-6.56316e-09
-6.61512e-09
-6.6679e-09
-6.72153e-09
-2.24874e-12
-5.80187e-09
-5.84231e-09
-5.88332e-09
-5.92491e-09
-5.96709e-09
-6.00988e-09
-6.05328e-09
-6.09731e-09
-6.14199e-09
-6.18733e-09
-6.23334e-09
-6.28005e-09
-6.32746e-09
-6.37559e-09
-6.42446e-09
-6.47408e-09
-6.52448e-09
-6.57566e-09
-6.62765e-09
-6.68047e-09
-6.73415e-09
-2.27236e-12
-5.81384e-09
-5.85432e-09
-5.89538e-09
-5.93701e-09
-5.97924e-09
-6.02207e-09
-6.06553e-09
-6.10961e-09
-6.15434e-09
-6.19972e-09
-6.24578e-09
-6.29253e-09
-6.33999e-09
-6.38817e-09
-6.43708e-09
-6.48675e-09
-6.53719e-09
-6.58842e-09
-6.64046e-09
-6.69334e-09
-6.74705e-09
-2.29601e-12
-5.82602e-09
-5.86656e-09
-5.90766e-09
-5.94934e-09
-5.99162e-09
-6.0345e-09
-6.078e-09
-6.12214e-09
-6.16691e-09
-6.21235e-09
-6.25846e-09
-6.30526e-09
-6.35277e-09
-6.401e-09
-6.44996e-09
-6.49969e-09
-6.55018e-09
-6.60146e-09
-6.65355e-09
-6.70647e-09
-6.76025e-09
-2.31968e-12
-5.83841e-09
-5.87899e-09
-5.92015e-09
-5.96189e-09
-6.00422e-09
-6.04716e-09
-6.09071e-09
-6.1349e-09
-6.17973e-09
-6.22522e-09
-6.27138e-09
-6.31824e-09
-6.3658e-09
-6.41409e-09
-6.46311e-09
-6.51288e-09
-6.56343e-09
-6.61477e-09
-6.66692e-09
-6.7199e-09
-6.77372e-09
-2.34338e-12
-5.851e-09
-5.89165e-09
-5.93286e-09
-5.97465e-09
-6.01704e-09
-6.06003e-09
-6.10365e-09
-6.14788e-09
-6.19277e-09
-6.23833e-09
-6.28455e-09
-6.33146e-09
-6.37909e-09
-6.42742e-09
-6.4765e-09
-6.52634e-09
-6.57695e-09
-6.62835e-09
-6.68056e-09
-6.73359e-09
-6.78749e-09
-2.3671e-12
-5.86381e-09
-5.90451e-09
-5.94578e-09
-5.98763e-09
-6.03008e-09
-6.07313e-09
-6.1168e-09
-6.16111e-09
-6.20606e-09
-6.25167e-09
-6.29796e-09
-6.34493e-09
-6.39261e-09
-6.44102e-09
-6.49016e-09
-6.54006e-09
-6.59074e-09
-6.6422e-09
-6.69447e-09
-6.74758e-09
-6.80153e-09
-2.39084e-12
-5.87682e-09
-5.91758e-09
-5.95891e-09
-6.00083e-09
-6.04334e-09
-6.08645e-09
-6.13019e-09
-6.17456e-09
-6.21957e-09
-6.26525e-09
-6.3116e-09
-6.35865e-09
-6.40639e-09
-6.45486e-09
-6.50408e-09
-6.55405e-09
-6.60478e-09
-6.65632e-09
-6.70866e-09
-6.76183e-09
-6.81586e-09
-2.41459e-12
-5.89004e-09
-5.93086e-09
-5.97227e-09
-6.01424e-09
-6.05682e-09
-6.1e-09
-6.1438e-09
-6.18824e-09
-6.23333e-09
-6.27907e-09
-6.32549e-09
-6.3726e-09
-6.42042e-09
-6.46897e-09
-6.51825e-09
-6.56829e-09
-6.6191e-09
-6.67071e-09
-6.72312e-09
-6.77637e-09
-6.83047e-09
-2.43836e-12
-5.90346e-09
-5.94436e-09
-5.98582e-09
-6.02787e-09
-6.07052e-09
-6.11377e-09
-6.15764e-09
-6.20215e-09
-6.2473e-09
-6.29313e-09
-6.33961e-09
-6.3868e-09
-6.4347e-09
-6.48331e-09
-6.53267e-09
-6.58279e-09
-6.63368e-09
-6.68536e-09
-6.73786e-09
-6.79118e-09
-6.84536e-09
-2.46213e-12
-6.15616e-09
-6.19869e-09
-6.24181e-09
-6.28554e-09
-6.32988e-09
-6.37485e-09
-6.42047e-09
-6.46675e-09
-6.51369e-09
-6.56132e-09
-6.60966e-09
-6.65871e-09
-6.7085e-09
-6.75903e-09
-6.81034e-09
-6.86242e-09
-6.91531e-09
-6.96903e-09
-7.02358e-09
-7.07899e-09
-7.13529e-09
-2.83913e-12
)
;

boundaryField
{
    inlet
    {
        type            calculated;
        value           uniform 0;
    }
    outlet2
    {
        type            calculated;
        value           uniform 0;
    }
    outlet1
    {
        type            calculated;
        value           uniform 0;
    }
    wall
    {
        type            calculated;
        value           uniform 0;
    }
    symmetryBottom
    {
        type            symmetry;
    }
    symmetryZ0
    {
        type            symmetry;
    }
    symmetryZ05
    {
        type            symmetry;
    }
}


// ************************************************************************* //
