/*--------------------------------*- C++ -*----------------------------------*\
| =========                 |                                                 |
| \\      /  F ield         | OpenFOAM: The Open Source CFD Toolbox           |
|  \\    /   O peration     | Version:  2412                                  |
|   \\  /    A nd           | Website:  www.openfoam.com                      |
|    \\/     M anipulation  |                                                 |
\*---------------------------------------------------------------------------*/
FoamFile
{
    version     2.0;
    format      ascii;
    arch        "LSB;label=32;scalar=64";
    class       volScalarField;
    location    "1.66832e-07";
    object      rho_dof0;
}
// * * * * * * * * * * * * * * * * * * * * * * * * * * * * * * * * * * * * * //

dimensions      [0 0 0 0 0 0 0];

internalField   nonuniform List<scalar> 
625
(
2.81159e-05
2.73718e-05
2.73718e-05
2.81159e-05
2.73718e-05
2.73718e-05
2.81159e-05
2.73718e-05
2.73718e-05
2.81159e-05
2.73718e-05
2.73718e-05
2.81159e-05
2.73718e-05
2.73718e-05
2.81159e-05
2.73718e-05
2.73718e-05
2.81159e-05
2.73718e-05
2.73718e-05
2.81159e-05
2.73718e-05
2.73718e-05
2.81159e-05
2.73718e-05
2.73718e-05
2.81159e-05
2.73718e-05
2.73718e-05
2.81159e-05
2.73718e-05
2.73718e-05
2.81159e-05
2.73718e-05
2.73718e-05
2.81159e-05
2.73718e-05
2.73718e-05
2.81159e-05
2.73718e-05
2.73718e-05
2.81159e-05
2.73718e-05
2.73718e-05
2.81159e-05
2.73718e-05
2.73718e-05
2.81159e-05
2.73718e-05
2.73718e-05
2.81159e-05
2.73718e-05
2.73718e-05
2.81159e-05
2.73718e-05
2.73718e-05
2.81159e-05
2.73718e-05
2.73718e-05
2.81159e-05
2.73718e-05
2.73718e-05
2.81159e-05
2.73718e-05
2.73718e-05
2.81159e-05
2.73718e-05
2.73718e-05
2.81159e-05
2.73718e-05
2.73718e-05
2.81159e-05
2.73717e-05
2.73717e-05
2.75047e-05
2.75047e-05
2.75047e-05
2.75046e-05
2.75046e-05
2.75046e-05
2.75046e-05
2.75046e-05
2.75046e-05
2.75045e-05
2.75045e-05
2.75045e-05
2.75045e-05
2.75045e-05
2.75045e-05
2.75044e-05
2.75044e-05
2.75044e-05
2.75044e-05
2.75044e-05
2.75043e-05
2.75091e-05
2.76022e-05
2.76029e-05
2.76035e-05
2.76042e-05
2.76049e-05
2.76056e-05
2.76063e-05
2.7607e-05
2.76077e-05
2.76085e-05
2.76092e-05
2.761e-05
2.76107e-05
2.76115e-05
2.76123e-05
2.76131e-05
2.76139e-05
2.76148e-05
2.76156e-05
2.76165e-05
2.76173e-05
2.76221e-05
2.7598e-05
2.75986e-05
2.75992e-05
2.75999e-05
2.76005e-05
2.76012e-05
2.76019e-05
2.76025e-05
2.76032e-05
2.76039e-05
2.76046e-05
2.76054e-05
2.76061e-05
2.76068e-05
2.76076e-05
2.76084e-05
2.76091e-05
2.76099e-05
2.76107e-05
2.76116e-05
2.76124e-05
2.76171e-05
2.75938e-05
2.75944e-05
2.7595e-05
2.75957e-05
2.75963e-05
2.75969e-05
2.75976e-05
2.75982e-05
2.75989e-05
2.75995e-05
2.76002e-05
2.76009e-05
2.76016e-05
2.76023e-05
2.7603e-05
2.76038e-05
2.76045e-05
2.76053e-05
2.7606e-05
2.76068e-05
2.76076e-05
2.76124e-05
2.75897e-05
2.75903e-05
2.75909e-05
2.75915e-05
2.7592e-05
2.75926e-05
2.75933e-05
2.75939e-05
2.75945e-05
2.75951e-05
2.75958e-05
2.75964e-05
2.75971e-05
2.75978e-05
2.75985e-05
2.75992e-05
2.75999e-05
2.76006e-05
2.76013e-05
2.76021e-05
2.76028e-05
2.76076e-05
2.75856e-05
2.75861e-05
2.75867e-05
2.75872e-05
2.75878e-05
2.75884e-05
2.7589e-05
2.75896e-05
2.75901e-05
2.75908e-05
2.75914e-05
2.7592e-05
2.75926e-05
2.75933e-05
2.75939e-05
2.75946e-05
2.75953e-05
2.75959e-05
2.75966e-05
2.75973e-05
2.75981e-05
2.76028e-05
2.75815e-05
2.7582e-05
2.75825e-05
2.7583e-05
2.75836e-05
2.75841e-05
2.75847e-05
2.75852e-05
2.75858e-05
2.75864e-05
2.75869e-05
2.75875e-05
2.75881e-05
2.75887e-05
2.75894e-05
2.759e-05
2.75906e-05
2.75913e-05
2.75919e-05
2.75926e-05
2.75933e-05
2.7598e-05
2.75774e-05
2.75778e-05
2.75783e-05
2.75788e-05
2.75793e-05
2.75799e-05
2.75804e-05
2.75809e-05
2.75814e-05
2.7582e-05
2.75825e-05
2.75831e-05
2.75837e-05
2.75842e-05
2.75848e-05
2.75854e-05
2.7586e-05
2.75866e-05
2.75872e-05
2.75879e-05
2.75885e-05
2.75933e-05
2.75732e-05
2.75737e-05
2.75742e-05
2.75746e-05
2.75751e-05
2.75756e-05
2.75761e-05
2.75766e-05
2.75771e-05
2.75776e-05
2.75781e-05
2.75786e-05
2.75792e-05
2.75797e-05
2.75803e-05
2.75808e-05
2.75814e-05
2.7582e-05
2.75825e-05
2.75831e-05
2.75837e-05
2.75885e-05
2.75691e-05
2.75696e-05
2.757e-05
2.75704e-05
2.75709e-05
2.75713e-05
2.75718e-05
2.75722e-05
2.75727e-05
2.75732e-05
2.75737e-05
2.75742e-05
2.75747e-05
2.75752e-05
2.75757e-05
2.75762e-05
2.75768e-05
2.75773e-05
2.75778e-05
2.75784e-05
2.7579e-05
2.75837e-05
2.7565e-05
2.75654e-05
2.75658e-05
2.75662e-05
2.75666e-05
2.75671e-05
2.75675e-05
2.75679e-05
2.75684e-05
2.75688e-05
2.75693e-05
2.75697e-05
2.75702e-05
2.75707e-05
2.75711e-05
2.75716e-05
2.75721e-05
2.75726e-05
2.75731e-05
2.75737e-05
2.75742e-05
2.7579e-05
2.75609e-05
2.75613e-05
2.75616e-05
2.7562e-05
2.75624e-05
2.75628e-05
2.75632e-05
2.75636e-05
2.7564e-05
2.75644e-05
2.75649e-05
2.75653e-05
2.75657e-05
2.75662e-05
2.75666e-05
2.75671e-05
2.75675e-05
2.7568e-05
2.75685e-05
2.75689e-05
2.75694e-05
2.75742e-05
2.75568e-05
2.75571e-05
2.75575e-05
2.75578e-05
2.75582e-05
2.75585e-05
2.75589e-05
2.75593e-05
2.75597e-05
2.756e-05
2.75604e-05
2.75608e-05
2.75612e-05
2.75616e-05
2.7562e-05
2.75625e-05
2.75629e-05
2.75633e-05
2.75638e-05
2.75642e-05
2.75647e-05
2.75694e-05
2.75527e-05
2.7553e-05
2.75533e-05
2.75536e-05
2.7554e-05
2.75543e-05
2.75546e-05
2.7555e-05
2.75553e-05
2.75557e-05
2.7556e-05
2.75564e-05
2.75567e-05
2.75571e-05
2.75575e-05
2.75579e-05
2.75583e-05
2.75587e-05
2.75591e-05
2.75595e-05
2.75599e-05
2.75647e-05
2.75486e-05
2.75489e-05
2.75491e-05
2.75494e-05
2.75497e-05
2.755e-05
2.75503e-05
2.75506e-05
2.7551e-05
2.75513e-05
2.75516e-05
2.75519e-05
2.75523e-05
2.75526e-05
2.7553e-05
2.75533e-05
2.75537e-05
2.7554e-05
2.75544e-05
2.75548e-05
2.75551e-05
2.75599e-05
2.75445e-05
2.75447e-05
2.7545e-05
2.75452e-05
2.75455e-05
2.75458e-05
2.7546e-05
2.75463e-05
2.75466e-05
2.75469e-05
2.75472e-05
2.75475e-05
2.75478e-05
2.75481e-05
2.75484e-05
2.75487e-05
2.7549e-05
2.75494e-05
2.75497e-05
2.755e-05
2.75504e-05
2.75551e-05
2.75403e-05
2.75406e-05
2.75408e-05
2.7541e-05
2.75413e-05
2.75415e-05
2.75418e-05
2.7542e-05
2.75423e-05
2.75425e-05
2.75428e-05
2.7543e-05
2.75433e-05
2.75436e-05
2.75439e-05
2.75441e-05
2.75444e-05
2.75447e-05
2.7545e-05
2.75453e-05
2.75456e-05
2.75504e-05
2.75362e-05
2.75364e-05
2.75366e-05
2.75368e-05
2.7537e-05
2.75373e-05
2.75375e-05
2.75377e-05
2.75379e-05
2.75381e-05
2.75384e-05
2.75386e-05
2.75388e-05
2.75391e-05
2.75393e-05
2.75395e-05
2.75398e-05
2.75401e-05
2.75403e-05
2.75406e-05
2.75408e-05
2.75456e-05
2.75321e-05
2.75323e-05
2.75325e-05
2.75326e-05
2.75328e-05
2.7533e-05
2.75332e-05
2.75334e-05
2.75336e-05
2.75338e-05
2.75339e-05
2.75341e-05
2.75343e-05
2.75346e-05
2.75348e-05
2.7535e-05
2.75352e-05
2.75354e-05
2.75356e-05
2.75358e-05
2.75361e-05
2.75408e-05
2.7528e-05
2.75282e-05
2.75283e-05
2.75284e-05
2.75286e-05
2.75287e-05
2.75289e-05
2.75291e-05
2.75292e-05
2.75294e-05
2.75295e-05
2.75297e-05
2.75299e-05
2.753e-05
2.75302e-05
2.75304e-05
2.75306e-05
2.75307e-05
2.75309e-05
2.75311e-05
2.75313e-05
2.75361e-05
2.75239e-05
2.7524e-05
2.75241e-05
2.75243e-05
2.75244e-05
2.75245e-05
2.75246e-05
2.75247e-05
2.75249e-05
2.7525e-05
2.75251e-05
2.75253e-05
2.75254e-05
2.75255e-05
2.75257e-05
2.75258e-05
2.75259e-05
2.75261e-05
2.75262e-05
2.75264e-05
2.75265e-05
2.75313e-05
2.75198e-05
2.75199e-05
2.752e-05
2.75201e-05
2.75201e-05
2.75202e-05
2.75203e-05
2.75204e-05
2.75205e-05
2.75206e-05
2.75207e-05
2.75208e-05
2.75209e-05
2.7521e-05
2.75211e-05
2.75212e-05
2.75213e-05
2.75214e-05
2.75215e-05
2.75217e-05
2.75218e-05
2.75265e-05
2.75157e-05
2.75157e-05
2.75158e-05
2.75159e-05
2.75159e-05
2.7516e-05
2.7516e-05
2.75161e-05
2.75162e-05
2.75162e-05
2.75163e-05
2.75164e-05
2.75164e-05
2.75165e-05
2.75166e-05
2.75166e-05
2.75167e-05
2.75168e-05
2.75169e-05
2.75169e-05
2.7517e-05
2.75218e-05
2.75116e-05
2.75116e-05
2.75116e-05
2.75117e-05
2.75117e-05
2.75117e-05
2.75118e-05
2.75118e-05
2.75118e-05
2.75119e-05
2.75119e-05
2.75119e-05
2.7512e-05
2.7512e-05
2.7512e-05
2.75121e-05
2.75121e-05
2.75121e-05
2.75122e-05
2.75122e-05
2.75122e-05
2.7517e-05
2.75074e-05
2.75074e-05
2.75074e-05
2.75074e-05
2.75074e-05
2.75074e-05
2.75074e-05
2.75074e-05
2.75074e-05
2.75074e-05
2.75074e-05
2.75074e-05
2.75074e-05
2.75074e-05
2.75074e-05
2.75074e-05
2.75074e-05
2.75074e-05
2.75074e-05
2.75074e-05
2.75074e-05
2.75122e-05
)
;

boundaryField
{
    inlet
    {
        type            calculated;
        value           uniform 2.81085e-05;
    }
    outlet2
    {
        type            calculated;
        value           uniform 2.81085e-05;
    }
    outlet1
    {
        type            calculated;
        value           uniform 2.81085e-05;
    }
    wall
    {
        type            calculated;
        value           uniform 2.81085e-05;
    }
    symmetryBottom
    {
        type            symmetry;
    }
    symmetryZ0
    {
        type            symmetry;
    }
    symmetryZ05
    {
        type            symmetry;
    }
}


// ************************************************************************* //
