/*--------------------------------*- C++ -*----------------------------------*\
| =========                 |                                                 |
| \\      /  F ield         | OpenFOAM: The Open Source CFD Toolbox           |
|  \\    /   O peration     | Version:  2412                                  |
|   \\  /    A nd           | Website:  www.openfoam.com                      |
|    \\/     M anipulation  |                                                 |
\*---------------------------------------------------------------------------*/
FoamFile
{
    version     2.0;
    format      ascii;
    arch        "LSB;label=32;scalar=64";
    class       volScalarField;
    location    "1.66832e-07";
    object      rho_dof3;
}
// * * * * * * * * * * * * * * * * * * * * * * * * * * * * * * * * * * * * * //

dimensions      [0 0 0 0 0 0 0];

internalField   nonuniform List<scalar> 
625
(
3.6961e-08
3.65917e-08
3.60994e-08
3.6961e-08
3.65918e-08
3.60994e-08
3.6961e-08
3.65918e-08
3.60994e-08
3.6961e-08
3.65918e-08
3.60994e-08
3.6961e-08
3.65918e-08
3.60994e-08
3.6961e-08
3.65918e-08
3.60994e-08
3.6961e-08
3.65918e-08
3.60994e-08
3.6961e-08
3.65918e-08
3.60994e-08
3.6961e-08
3.65918e-08
3.60994e-08
3.6961e-08
3.65918e-08
3.60994e-08
3.6961e-08
3.65918e-08
3.60994e-08
3.6961e-08
3.65918e-08
3.60994e-08
3.6961e-08
3.65918e-08
3.60994e-08
3.6961e-08
3.65918e-08
3.60994e-08
3.6961e-08
3.65918e-08
3.60994e-08
3.6961e-08
3.65918e-08
3.60994e-08
3.6961e-08
3.65918e-08
3.60994e-08
3.6961e-08
3.65918e-08
3.60994e-08
3.6961e-08
3.65918e-08
3.60994e-08
3.6961e-08
3.65918e-08
3.60994e-08
3.6961e-08
3.65918e-08
3.60994e-08
3.6961e-08
3.65918e-08
3.60994e-08
3.6961e-08
3.65918e-08
3.60994e-08
3.6961e-08
3.65918e-08
3.60994e-08
3.69661e-08
3.65969e-08
3.65914e-08
3.67909e-08
3.67917e-08
3.67924e-08
3.67931e-08
3.67938e-08
3.67946e-08
3.67954e-08
3.67961e-08
3.67969e-08
3.67977e-08
3.67985e-08
3.67993e-08
3.68002e-08
3.6801e-08
3.68019e-08
3.68027e-08
3.68036e-08
3.68045e-08
3.68054e-08
3.68064e-08
3.68073e-08
4.3175e-08
3.68616e-08
3.68628e-08
3.6864e-08
3.68653e-08
3.68665e-08
3.68678e-08
3.68691e-08
3.68704e-08
3.68717e-08
3.68731e-08
3.68744e-08
3.68758e-08
3.68772e-08
3.68786e-08
3.68801e-08
3.68816e-08
3.68831e-08
3.68846e-08
3.68861e-08
3.68877e-08
3.68893e-08
4.32722e-08
3.68595e-08
3.68607e-08
3.68619e-08
3.68632e-08
3.68644e-08
3.68656e-08
3.68669e-08
3.68682e-08
3.68695e-08
3.68709e-08
3.68722e-08
3.68736e-08
3.6875e-08
3.68764e-08
3.68778e-08
3.68793e-08
3.68807e-08
3.68822e-08
3.68838e-08
3.68853e-08
3.68869e-08
4.32693e-08
3.68575e-08
3.68586e-08
3.68598e-08
3.6861e-08
3.68623e-08
3.68635e-08
3.68648e-08
3.6866e-08
3.68673e-08
3.68686e-08
3.687e-08
3.68713e-08
3.68727e-08
3.68741e-08
3.68755e-08
3.68769e-08
3.68784e-08
3.68799e-08
3.68814e-08
3.68829e-08
3.68845e-08
4.32665e-08
3.68554e-08
3.68566e-08
3.68577e-08
3.68589e-08
3.68601e-08
3.68614e-08
3.68626e-08
3.68639e-08
3.68651e-08
3.68664e-08
3.68678e-08
3.68691e-08
3.68704e-08
3.68718e-08
3.68732e-08
3.68746e-08
3.68761e-08
3.68775e-08
3.6879e-08
3.68805e-08
3.68821e-08
4.32636e-08
3.68533e-08
3.68545e-08
3.68556e-08
3.68568e-08
3.6858e-08
3.68592e-08
3.68604e-08
3.68617e-08
3.68629e-08
3.68642e-08
3.68655e-08
3.68668e-08
3.68682e-08
3.68695e-08
3.68709e-08
3.68723e-08
3.68737e-08
3.68752e-08
3.68767e-08
3.68781e-08
3.68797e-08
4.32608e-08
3.68513e-08
3.68524e-08
3.68535e-08
3.68547e-08
3.68559e-08
3.68571e-08
3.68583e-08
3.68595e-08
3.68608e-08
3.6862e-08
3.68633e-08
3.68646e-08
3.68659e-08
3.68673e-08
3.68686e-08
3.687e-08
3.68714e-08
3.68728e-08
3.68743e-08
3.68758e-08
3.68773e-08
4.32579e-08
3.68492e-08
3.68503e-08
3.68514e-08
3.68526e-08
3.68537e-08
3.68549e-08
3.68561e-08
3.68573e-08
3.68586e-08
3.68598e-08
3.68611e-08
3.68624e-08
3.68637e-08
3.6865e-08
3.68663e-08
3.68677e-08
3.68691e-08
3.68705e-08
3.68719e-08
3.68734e-08
3.68749e-08
4.32551e-08
3.68471e-08
3.68482e-08
3.68493e-08
3.68505e-08
3.68516e-08
3.68528e-08
3.6854e-08
3.68551e-08
3.68564e-08
3.68576e-08
3.68588e-08
3.68601e-08
3.68614e-08
3.68627e-08
3.6864e-08
3.68654e-08
3.68668e-08
3.68681e-08
3.68696e-08
3.6871e-08
3.68725e-08
4.32522e-08
3.6845e-08
3.68461e-08
3.68472e-08
3.68483e-08
3.68494e-08
3.68506e-08
3.68518e-08
3.68529e-08
3.68541e-08
3.68554e-08
3.68566e-08
3.68578e-08
3.68591e-08
3.68604e-08
3.68617e-08
3.6863e-08
3.68644e-08
3.68658e-08
3.68672e-08
3.68686e-08
3.687e-08
4.32493e-08
3.68426e-08
3.68437e-08
3.68448e-08
3.68459e-08
3.6847e-08
3.68481e-08
3.68492e-08
3.68504e-08
3.68516e-08
3.68528e-08
3.6854e-08
3.68552e-08
3.68565e-08
3.68578e-08
3.68591e-08
3.68604e-08
3.68617e-08
3.6863e-08
3.68644e-08
3.68658e-08
3.68672e-08
4.3246e-08
3.68402e-08
3.68412e-08
3.68423e-08
3.68434e-08
3.68445e-08
3.68456e-08
3.68467e-08
3.68479e-08
3.6849e-08
3.68502e-08
3.68514e-08
3.68526e-08
3.68539e-08
3.68551e-08
3.68564e-08
3.68577e-08
3.6859e-08
3.68603e-08
3.68617e-08
3.6863e-08
3.68644e-08
4.32427e-08
3.68378e-08
3.68388e-08
3.68399e-08
3.68409e-08
3.6842e-08
3.68431e-08
3.68442e-08
3.68453e-08
3.68465e-08
3.68476e-08
3.68488e-08
3.685e-08
3.68512e-08
3.68525e-08
3.68537e-08
3.6855e-08
3.68563e-08
3.68576e-08
3.68589e-08
3.68603e-08
3.68616e-08
4.32394e-08
3.68354e-08
3.68364e-08
3.68374e-08
3.68385e-08
3.68395e-08
3.68406e-08
3.68417e-08
3.68428e-08
3.68439e-08
3.68451e-08
3.68462e-08
3.68474e-08
3.68486e-08
3.68498e-08
3.6851e-08
3.68523e-08
3.68536e-08
3.68548e-08
3.68562e-08
3.68575e-08
3.68588e-08
4.32361e-08
3.6833e-08
3.6834e-08
3.6835e-08
3.6836e-08
3.6837e-08
3.68381e-08
3.68392e-08
3.68403e-08
3.68414e-08
3.68425e-08
3.68436e-08
3.68448e-08
3.6846e-08
3.68472e-08
3.68484e-08
3.68496e-08
3.68508e-08
3.68521e-08
3.68534e-08
3.68547e-08
3.6856e-08
4.32328e-08
3.68305e-08
3.68315e-08
3.68325e-08
3.68335e-08
3.68346e-08
3.68356e-08
3.68367e-08
3.68377e-08
3.68388e-08
3.68399e-08
3.68411e-08
3.68422e-08
3.68433e-08
3.68445e-08
3.68457e-08
3.68469e-08
3.68481e-08
3.68494e-08
3.68506e-08
3.68519e-08
3.68532e-08
4.32294e-08
3.68281e-08
3.68291e-08
3.68301e-08
3.68311e-08
3.68321e-08
3.68331e-08
3.68341e-08
3.68352e-08
3.68363e-08
3.68374e-08
3.68385e-08
3.68396e-08
3.68407e-08
3.68419e-08
3.6843e-08
3.68442e-08
3.68454e-08
3.68466e-08
3.68479e-08
3.68492e-08
3.68504e-08
4.32261e-08
3.68257e-08
3.68267e-08
3.68276e-08
3.68286e-08
3.68296e-08
3.68306e-08
3.68316e-08
3.68327e-08
3.68337e-08
3.68348e-08
3.68359e-08
3.6837e-08
3.68381e-08
3.68392e-08
3.68404e-08
3.68415e-08
3.68427e-08
3.68439e-08
3.68451e-08
3.68464e-08
3.68476e-08
4.32228e-08
3.68233e-08
3.68242e-08
3.68252e-08
3.68261e-08
3.68271e-08
3.68281e-08
3.68291e-08
3.68301e-08
3.68312e-08
3.68322e-08
3.68333e-08
3.68344e-08
3.68354e-08
3.68366e-08
3.68377e-08
3.68388e-08
3.684e-08
3.68412e-08
3.68424e-08
3.68436e-08
3.68448e-08
4.32195e-08
3.68209e-08
3.68218e-08
3.68227e-08
3.68237e-08
3.68246e-08
3.68256e-08
3.68266e-08
3.68276e-08
3.68286e-08
3.68296e-08
3.68307e-08
3.68317e-08
3.68328e-08
3.68339e-08
3.6835e-08
3.68361e-08
3.68373e-08
3.68384e-08
3.68396e-08
3.68408e-08
3.6842e-08
4.32162e-08
3.68185e-08
3.68194e-08
3.68203e-08
3.68212e-08
3.68222e-08
3.68231e-08
3.68241e-08
3.68251e-08
3.6826e-08
3.68271e-08
3.68281e-08
3.68291e-08
3.68302e-08
3.68313e-08
3.68323e-08
3.68334e-08
3.68346e-08
3.68357e-08
3.68369e-08
3.6838e-08
3.68392e-08
4.32128e-08
3.68161e-08
3.68169e-08
3.68178e-08
3.68187e-08
3.68197e-08
3.68206e-08
3.68216e-08
3.68225e-08
3.68235e-08
3.68245e-08
3.68255e-08
3.68265e-08
3.68275e-08
3.68286e-08
3.68297e-08
3.68307e-08
3.68318e-08
3.6833e-08
3.68341e-08
3.68353e-08
3.68364e-08
4.32095e-08
3.68136e-08
3.68145e-08
3.68154e-08
3.68163e-08
3.68172e-08
3.68181e-08
3.6819e-08
3.682e-08
3.68209e-08
3.68219e-08
3.68229e-08
3.68239e-08
3.68249e-08
3.68259e-08
3.6827e-08
3.68281e-08
3.68291e-08
3.68302e-08
3.68313e-08
3.68325e-08
3.68336e-08
4.32062e-08
3.68112e-08
3.68121e-08
3.68129e-08
3.68138e-08
3.68147e-08
3.68156e-08
3.68165e-08
3.68174e-08
3.68184e-08
3.68193e-08
3.68203e-08
3.68213e-08
3.68223e-08
3.68233e-08
3.68243e-08
3.68254e-08
3.68264e-08
3.68275e-08
3.68286e-08
3.68297e-08
3.68308e-08
4.32029e-08
3.6814e-08
3.68148e-08
3.68157e-08
3.68166e-08
3.68175e-08
3.68184e-08
3.68194e-08
3.68203e-08
3.68213e-08
3.68222e-08
3.68232e-08
3.68242e-08
3.68253e-08
3.68263e-08
3.68273e-08
3.68284e-08
3.68295e-08
3.68306e-08
3.68317e-08
3.68328e-08
3.6834e-08
4.32066e-08
)
;

boundaryField
{
    inlet
    {
        type            calculated;
        value           uniform 0;
    }
    outlet2
    {
        type            calculated;
        value           uniform 0;
    }
    outlet1
    {
        type            calculated;
        value           uniform 0;
    }
    wall
    {
        type            calculated;
        value           uniform 0;
    }
    symmetryBottom
    {
        type            symmetry;
    }
    symmetryZ0
    {
        type            symmetry;
    }
    symmetryZ05
    {
        type            symmetry;
    }
}


// ************************************************************************* //
