/*--------------------------------*- C++ -*----------------------------------*\
| =========                 |                                                 |
| \\      /  F ield         | OpenFOAM: The Open Source CFD Toolbox           |
|  \\    /   O peration     | Version:  2412                                  |
|   \\  /    A nd           | Website:  www.openfoam.com                      |
|    \\/     M anipulation  |                                                 |
\*---------------------------------------------------------------------------*/
FoamFile
{
    version     2.0;
    format      ascii;
    arch        "LSB;label=32;scalar=64";
    class       volVectorField;
    location    "1.66832e-07";
    object      rhoU_dof2;
}
// * * * * * * * * * * * * * * * * * * * * * * * * * * * * * * * * * * * * * //

dimensions      [0 0 0 0 0 0 0];

internalField   nonuniform List<vector> 
625
(
(1.18232e-07 -2.85631e-05 7.22738e-15)
(9.30272e-07 -2.83275e-05 1.0761e-14)
(-8.08615e-10 5.7761e-07 -0.00011478)
(-1.26465e-07 5.94968e-07 -1.73442e-14)
(6.85075e-07 5.40869e-07 -2.53777e-14)
(-5.63976e-09 5.7777e-07 -0.00011478)
(-4.58762e-08 5.86901e-07 -7.50648e-15)
(7.65659e-07 5.32801e-07 -1.09741e-14)
(-5.63868e-09 5.7777e-07 -0.00011478)
(-4.58762e-08 5.86901e-07 -7.50645e-15)
(7.65659e-07 5.32801e-07 -1.09741e-14)
(-5.63868e-09 5.7777e-07 -0.00011478)
(-4.58762e-08 5.86901e-07 -7.50648e-15)
(7.65659e-07 5.32801e-07 -1.09741e-14)
(-5.63868e-09 5.7777e-07 -0.00011478)
(-4.58762e-08 5.86901e-07 -7.50645e-15)
(7.65659e-07 5.32801e-07 -1.09741e-14)
(-5.63868e-09 5.7777e-07 -0.00011478)
(-4.58762e-08 5.86901e-07 -7.50651e-15)
(7.65659e-07 5.32801e-07 -1.09741e-14)
(-5.63868e-09 5.7777e-07 -0.00011478)
(-4.58762e-08 5.86901e-07 -7.50642e-15)
(7.65659e-07 5.32801e-07 -1.09741e-14)
(-5.63868e-09 5.7777e-07 -0.00011478)
(-4.58762e-08 5.86901e-07 -7.50643e-15)
(7.65659e-07 5.32801e-07 -1.09741e-14)
(-5.63868e-09 5.7777e-07 -0.00011478)
(-4.58762e-08 5.86901e-07 -7.5064e-15)
(7.65659e-07 5.32801e-07 -1.09743e-14)
(-5.63868e-09 5.7777e-07 -0.00011478)
(-4.58762e-08 5.86901e-07 -7.50639e-15)
(7.65659e-07 5.32801e-07 -1.09743e-14)
(-5.63868e-09 5.7777e-07 -0.00011478)
(-4.58762e-08 5.86901e-07 -7.50646e-15)
(7.65659e-07 5.32801e-07 -1.09742e-14)
(-5.63868e-09 5.7777e-07 -0.00011478)
(-4.58762e-08 5.86901e-07 -7.50646e-15)
(7.65659e-07 5.32801e-07 -1.09742e-14)
(-5.63868e-09 5.7777e-07 -0.00011478)
(-4.58762e-08 5.86901e-07 -7.50647e-15)
(7.65659e-07 5.32801e-07 -1.09742e-14)
(-5.63868e-09 5.7777e-07 -0.00011478)
(-4.58762e-08 5.86901e-07 -7.50647e-15)
(7.65659e-07 5.32801e-07 -1.09744e-14)
(-5.63868e-09 5.7777e-07 -0.00011478)
(-4.58762e-08 5.86901e-07 -7.50654e-15)
(7.65659e-07 5.32801e-07 -1.09742e-14)
(-5.63868e-09 5.7777e-07 -0.00011478)
(-4.58762e-08 5.86901e-07 -7.50648e-15)
(7.65659e-07 5.32801e-07 -1.09741e-14)
(-5.63868e-09 5.7777e-07 -0.00011478)
(-4.58762e-08 5.86901e-07 -7.50644e-15)
(7.65659e-07 5.32801e-07 -1.09744e-14)
(-5.63868e-09 5.7777e-07 -0.00011478)
(-4.58762e-08 5.86901e-07 -7.5064e-15)
(7.65659e-07 5.32801e-07 -1.09741e-14)
(-5.63868e-09 5.7777e-07 -0.00011478)
(-4.58762e-08 5.86901e-07 -7.50632e-15)
(7.65659e-07 5.32801e-07 -1.09741e-14)
(-5.63868e-09 5.7777e-07 -0.00011478)
(-4.58762e-08 5.86901e-07 -7.50612e-15)
(7.65659e-07 5.32801e-07 -1.09741e-14)
(-5.63868e-09 5.7777e-07 -0.00011478)
(-4.58762e-08 5.86901e-07 -7.5065e-15)
(7.65659e-07 5.32801e-07 -1.09741e-14)
(-5.63868e-09 5.7777e-07 -0.00011478)
(-4.58762e-08 5.86901e-07 -7.50629e-15)
(7.65659e-07 5.32801e-07 -1.09742e-14)
(-5.63868e-09 5.7777e-07 -0.00011478)
(-4.58762e-08 5.86901e-07 -7.5066e-15)
(7.65659e-07 5.32801e-07 -1.09743e-14)
(-5.63868e-09 5.7777e-07 -0.00011478)
(-8.04554e-09 5.83162e-07 -6.09125e-16)
(-8.04497e-09 5.77367e-07 -1.05571e-15)
(-1.04607e-08 5.77609e-07 2.41006e-10)
(0.000893191 -2.89498e-05 9.60614e-12)
(0.000899358 -2.9156e-05 9.67528e-12)
(0.00090561 -2.9365e-05 9.74542e-12)
(0.00091195 -2.9577e-05 9.81658e-12)
(0.000918379 -2.97921e-05 9.88878e-12)
(0.0009249 -3.00102e-05 9.96206e-12)
(0.000931514 -3.02314e-05 1.00364e-11)
(0.000938223 -3.04559e-05 1.01119e-11)
(0.00094503 -3.06837e-05 1.01885e-11)
(0.000951936 -3.09149e-05 1.02663e-11)
(0.000958943 -3.11495e-05 1.03453e-11)
(0.000966055 -3.13876e-05 1.04255e-11)
(0.000973273 -3.16293e-05 1.0507e-11)
(0.000980599 -3.18747e-05 1.05897e-11)
(0.000988037 -3.21239e-05 1.06738e-11)
(0.000995588 -3.23769e-05 1.07592e-11)
(0.00100326 -3.26339e-05 1.08459e-11)
(0.00101104 -3.28949e-05 1.09341e-11)
(0.00101895 -3.316e-05 1.10237e-11)
(0.00102698 -3.34294e-05 1.11148e-11)
(0.00103515 -3.37031e-05 1.12075e-11)
(1.69579e-09 5.80997e-07 -0.000115425)
(-1.57173e-05 3.8855e-07 1.44809e-13)
(-1.58361e-05 3.86444e-07 1.45397e-13)
(-1.59566e-05 3.84298e-07 1.45988e-13)
(-1.60791e-05 3.8211e-07 1.46581e-13)
(-1.62033e-05 3.7988e-07 1.47176e-13)
(-1.63296e-05 3.77606e-07 1.47773e-13)
(-1.64578e-05 3.75287e-07 1.48373e-13)
(-1.65879e-05 3.72922e-07 1.48974e-13)
(-1.67202e-05 3.70509e-07 1.49578e-13)
(-1.68546e-05 3.68048e-07 1.50183e-13)
(-1.69911e-05 3.65536e-07 1.5079e-13)
(-1.71298e-05 3.62973e-07 1.51398e-13)
(-1.72708e-05 3.60357e-07 1.52008e-13)
(-1.74141e-05 3.57686e-07 1.52619e-13)
(-1.75599e-05 3.54959e-07 1.53231e-13)
(-1.7708e-05 3.52175e-07 1.53844e-13)
(-1.78586e-05 3.4933e-07 1.54458e-13)
(-1.80118e-05 3.46425e-07 1.55073e-13)
(-1.81677e-05 3.43456e-07 1.55688e-13)
(-1.83262e-05 3.40422e-07 1.56303e-13)
(-1.84875e-05 3.37321e-07 1.56918e-13)
(-5.61477e-09 5.77888e-07 -0.000114809)
(-1.47365e-05 5.25869e-07 1.81911e-13)
(-1.4841e-05 5.25668e-07 1.83072e-13)
(-1.49471e-05 5.25467e-07 1.84249e-13)
(-1.50546e-05 5.25266e-07 1.85441e-13)
(-1.51638e-05 5.25064e-07 1.86648e-13)
(-1.52745e-05 5.24862e-07 1.87871e-13)
(-1.53868e-05 5.24659e-07 1.8911e-13)
(-1.55008e-05 5.24457e-07 1.90365e-13)
(-1.56166e-05 5.24254e-07 1.91637e-13)
(-1.5734e-05 5.24051e-07 1.92925e-13)
(-1.58532e-05 5.23848e-07 1.94232e-13)
(-1.59743e-05 5.23646e-07 1.95556e-13)
(-1.60972e-05 5.23443e-07 1.96897e-13)
(-1.6222e-05 5.2324e-07 1.98257e-13)
(-1.63488e-05 5.23038e-07 1.99636e-13)
(-1.64776e-05 5.22836e-07 2.01034e-13)
(-1.66084e-05 5.22635e-07 2.02452e-13)
(-1.67413e-05 5.22434e-07 2.03889e-13)
(-1.68763e-05 5.22234e-07 2.05347e-13)
(-1.70135e-05 5.22034e-07 2.06826e-13)
(-1.7153e-05 5.21835e-07 2.08326e-13)
(-5.61377e-09 5.7785e-07 -0.000114802)
(-1.47994e-05 5.24792e-07 1.73171e-13)
(-1.49042e-05 5.24576e-07 1.74272e-13)
(-1.50105e-05 5.2436e-07 1.75388e-13)
(-1.51184e-05 5.24143e-07 1.76517e-13)
(-1.52277e-05 5.23925e-07 1.77661e-13)
(-1.53387e-05 5.23706e-07 1.7882e-13)
(-1.54513e-05 5.23487e-07 1.79994e-13)
(-1.55656e-05 5.23268e-07 1.81183e-13)
(-1.56815e-05 5.23047e-07 1.82388e-13)
(-1.57993e-05 5.22827e-07 1.83609e-13)
(-1.59187e-05 5.22606e-07 1.84847e-13)
(-1.60401e-05 5.22384e-07 1.861e-13)
(-1.61632e-05 5.22163e-07 1.87371e-13)
(-1.62883e-05 5.21941e-07 1.88659e-13)
(-1.64153e-05 5.21719e-07 1.89965e-13)
(-1.65443e-05 5.21496e-07 1.91289e-13)
(-1.66754e-05 5.21274e-07 1.92631e-13)
(-1.68086e-05 5.21052e-07 1.93992e-13)
(-1.69438e-05 5.2083e-07 1.95373e-13)
(-1.70813e-05 5.20608e-07 1.96772e-13)
(-1.72211e-05 5.20386e-07 1.98192e-13)
(-5.61377e-09 5.77812e-07 -0.000114794)
(-1.48636e-05 5.23715e-07 1.64429e-13)
(-1.49687e-05 5.23484e-07 1.65469e-13)
(-1.50753e-05 5.23252e-07 1.66523e-13)
(-1.51834e-05 5.2302e-07 1.6759e-13)
(-1.5293e-05 5.22786e-07 1.68671e-13)
(-1.54043e-05 5.22551e-07 1.69766e-13)
(-1.55171e-05 5.22315e-07 1.70875e-13)
(-1.56317e-05 5.22078e-07 1.71999e-13)
(-1.57479e-05 5.21841e-07 1.73137e-13)
(-1.58659e-05 5.21602e-07 1.7429e-13)
(-1.59857e-05 5.21363e-07 1.75458e-13)
(-1.61072e-05 5.21123e-07 1.76642e-13)
(-1.62307e-05 5.20882e-07 1.77842e-13)
(-1.6356e-05 5.20641e-07 1.79058e-13)
(-1.64833e-05 5.20399e-07 1.80291e-13)
(-1.66126e-05 5.20156e-07 1.81541e-13)
(-1.6744e-05 5.19913e-07 1.82808e-13)
(-1.68774e-05 5.1967e-07 1.84092e-13)
(-1.7013e-05 5.19426e-07 1.85394e-13)
(-1.71508e-05 5.19181e-07 1.86716e-13)
(-1.72908e-05 5.18937e-07 1.88055e-13)
(-5.61376e-09 5.77775e-07 -0.000114787)
(-1.49291e-05 5.22638e-07 1.55684e-13)
(-1.50344e-05 5.22392e-07 1.56664e-13)
(-1.51413e-05 5.22145e-07 1.57656e-13)
(-1.52497e-05 5.21896e-07 1.58661e-13)
(-1.53596e-05 5.21647e-07 1.59679e-13)
(-1.54711e-05 5.21395e-07 1.6071e-13)
(-1.55843e-05 5.21143e-07 1.61754e-13)
(-1.56991e-05 5.20889e-07 1.62811e-13)
(-1.58157e-05 5.20634e-07 1.63882e-13)
(-1.59339e-05 5.20378e-07 1.64968e-13)
(-1.6054e-05 5.20121e-07 1.66067e-13)
(-1.61759e-05 5.19862e-07 1.67181e-13)
(-1.62996e-05 5.19602e-07 1.6831e-13)
(-1.64253e-05 5.19341e-07 1.69454e-13)
(-1.65529e-05 5.19079e-07 1.70614e-13)
(-1.66825e-05 5.18816e-07 1.71789e-13)
(-1.68141e-05 5.18552e-07 1.72981e-13)
(-1.69479e-05 5.18287e-07 1.74189e-13)
(-1.70837e-05 5.18022e-07 1.75413e-13)
(-1.72218e-05 5.17755e-07 1.76655e-13)
(-1.73621e-05 5.17488e-07 1.77914e-13)
(-5.61375e-09 5.77737e-07 -0.000114779)
(-1.49958e-05 5.21561e-07 1.46936e-13)
(-1.51014e-05 5.213e-07 1.47856e-13)
(-1.52086e-05 5.21037e-07 1.48787e-13)
(-1.53173e-05 5.20773e-07 1.49729e-13)
(-1.54275e-05 5.20508e-07 1.50684e-13)
(-1.55393e-05 5.2024e-07 1.5165e-13)
(-1.56528e-05 5.19971e-07 1.52629e-13)
(-1.5768e-05 5.197e-07 1.53621e-13)
(-1.58848e-05 5.19428e-07 1.54625e-13)
(-1.60034e-05 5.19154e-07 1.55642e-13)
(-1.61238e-05 5.18878e-07 1.56673e-13)
(-1.6246e-05 5.18601e-07 1.57717e-13)
(-1.637e-05 5.18322e-07 1.58775e-13)
(-1.6496e-05 5.18042e-07 1.59847e-13)
(-1.66239e-05 5.1776e-07 1.60934e-13)
(-1.67539e-05 5.17476e-07 1.62035e-13)
(-1.68858e-05 5.17192e-07 1.63151e-13)
(-1.70199e-05 5.16905e-07 1.64282e-13)
(-1.71561e-05 5.16618e-07 1.65429e-13)
(-1.72945e-05 5.16329e-07 1.66592e-13)
(-1.74352e-05 5.16038e-07 1.6777e-13)
(-5.61374e-09 5.777e-07 -0.000114772)
(-1.50637e-05 5.20484e-07 1.38186e-13)
(-1.51696e-05 5.20208e-07 1.39045e-13)
(-1.52771e-05 5.1993e-07 1.39915e-13)
(-1.53861e-05 5.1965e-07 1.40795e-13)
(-1.54967e-05 5.19368e-07 1.41686e-13)
(-1.56089e-05 5.19085e-07 1.42588e-13)
(-1.57227e-05 5.18799e-07 1.43502e-13)
(-1.58381e-05 5.18511e-07 1.44428e-13)
(-1.59553e-05 5.18221e-07 1.45365e-13)
(-1.60742e-05 5.17929e-07 1.46314e-13)
(-1.6195e-05 5.17635e-07 1.47276e-13)
(-1.63175e-05 5.1734e-07 1.4825e-13)
(-1.64419e-05 5.17042e-07 1.49237e-13)
(-1.65682e-05 5.16742e-07 1.50237e-13)
(-1.66965e-05 5.1644e-07 1.5125e-13)
(-1.68268e-05 5.16136e-07 1.52277e-13)
(-1.69591e-05 5.15831e-07 1.53317e-13)
(-1.70935e-05 5.15523e-07 1.54372e-13)
(-1.72301e-05 5.15214e-07 1.55441e-13)
(-1.73688e-05 5.14902e-07 1.56524e-13)
(-1.75099e-05 5.14589e-07 1.57623e-13)
(-5.61373e-09 5.77662e-07 -0.000114764)
(-1.51328e-05 5.19406e-07 1.29434e-13)
(-1.52391e-05 5.19116e-07 1.30232e-13)
(-1.53469e-05 5.18823e-07 1.31039e-13)
(-1.54563e-05 5.18527e-07 1.31857e-13)
(-1.55672e-05 5.18229e-07 1.32685e-13)
(-1.56797e-05 5.17929e-07 1.33523e-13)
(-1.57939e-05 5.17627e-07 1.34372e-13)
(-1.59097e-05 5.17322e-07 1.35232e-13)
(-1.60272e-05 5.17014e-07 1.36102e-13)
(-1.61465e-05 5.16705e-07 1.36983e-13)
(-1.62676e-05 5.16393e-07 1.37876e-13)
(-1.63905e-05 5.16078e-07 1.3878e-13)
(-1.65152e-05 5.15761e-07 1.39695e-13)
(-1.66419e-05 5.15442e-07 1.40623e-13)
(-1.67706e-05 5.1512e-07 1.41563e-13)
(-1.69012e-05 5.14796e-07 1.42515e-13)
(-1.70339e-05 5.1447e-07 1.43481e-13)
(-1.71687e-05 5.14141e-07 1.44458e-13)
(-1.73056e-05 5.1381e-07 1.45449e-13)
(-1.74448e-05 5.13476e-07 1.46453e-13)
(-1.75862e-05 5.1314e-07 1.47471e-13)
(-5.61372e-09 5.77625e-07 -0.000114757)
(-1.52e-05 5.1853e-07 1.2053e-13)
(-1.53066e-05 5.18226e-07 1.21267e-13)
(-1.54148e-05 5.17919e-07 1.22012e-13)
(-1.55244e-05 5.17609e-07 1.22767e-13)
(-1.56357e-05 5.17297e-07 1.2353e-13)
(-1.57485e-05 5.16982e-07 1.24303e-13)
(-1.5863e-05 5.16664e-07 1.25085e-13)
(-1.59792e-05 5.16344e-07 1.25878e-13)
(-1.60971e-05 5.16021e-07 1.2668e-13)
(-1.62167e-05 5.15695e-07 1.27493e-13)
(-1.63381e-05 5.15366e-07 1.28315e-13)
(-1.64614e-05 5.15035e-07 1.29148e-13)
(-1.65865e-05 5.14701e-07 1.29992e-13)
(-1.67136e-05 5.14364e-07 1.30846e-13)
(-1.68426e-05 5.14024e-07 1.31712e-13)
(-1.69736e-05 5.13681e-07 1.32589e-13)
(-1.71067e-05 5.13335e-07 1.33476e-13)
(-1.72418e-05 5.12987e-07 1.34377e-13)
(-1.73792e-05 5.12636e-07 1.35288e-13)
(-1.75187e-05 5.12281e-07 1.36212e-13)
(-1.76605e-05 5.11924e-07 1.37149e-13)
(-5.61846e-09 5.77587e-07 -0.000114749)
(-1.52293e-05 5.20091e-07 1.09993e-13)
(-1.5336e-05 5.19791e-07 1.10658e-13)
(-1.54442e-05 5.19487e-07 1.11331e-13)
(-1.5554e-05 5.19181e-07 1.12012e-13)
(-1.56653e-05 5.18872e-07 1.12701e-13)
(-1.57782e-05 5.1856e-07 1.13399e-13)
(-1.58928e-05 5.18246e-07 1.14105e-13)
(-1.60091e-05 5.17929e-07 1.1482e-13)
(-1.6127e-05 5.17609e-07 1.15543e-13)
(-1.62467e-05 5.17286e-07 1.16275e-13)
(-1.63682e-05 5.1696e-07 1.17017e-13)
(-1.64916e-05 5.16631e-07 1.17768e-13)
(-1.66168e-05 5.163e-07 1.18528e-13)
(-1.67439e-05 5.15966e-07 1.19298e-13)
(-1.6873e-05 5.15628e-07 1.20077e-13)
(-1.70041e-05 5.15288e-07 1.20867e-13)
(-1.71372e-05 5.14945e-07 1.21667e-13)
(-1.72724e-05 5.14599e-07 1.22477e-13)
(-1.74098e-05 5.14249e-07 1.23297e-13)
(-1.75494e-05 5.13897e-07 1.24129e-13)
(-1.76913e-05 5.13542e-07 1.24971e-13)
(-5.68037e-09 5.77544e-07 -0.00011474)
(-1.52589e-05 5.21696e-07 9.9689e-14)
(-1.53657e-05 5.214e-07 1.00284e-13)
(-1.5474e-05 5.211e-07 1.00886e-13)
(-1.55838e-05 5.20798e-07 1.01495e-13)
(-1.56952e-05 5.20494e-07 1.02112e-13)
(-1.58083e-05 5.20186e-07 1.02736e-13)
(-1.59229e-05 5.19876e-07 1.03367e-13)
(-1.60392e-05 5.19563e-07 1.04006e-13)
(-1.61573e-05 5.19247e-07 1.04652e-13)
(-1.62771e-05 5.18928e-07 1.05306e-13)
(-1.63987e-05 5.18606e-07 1.05969e-13)
(-1.65221e-05 5.18281e-07 1.06639e-13)
(-1.66473e-05 5.17954e-07 1.07317e-13)
(-1.67746e-05 5.17623e-07 1.08005e-13)
(-1.69037e-05 5.17289e-07 1.087e-13)
(-1.70349e-05 5.16953e-07 1.09405e-13)
(-1.71681e-05 5.16613e-07 1.10118e-13)
(-1.73034e-05 5.1627e-07 1.1084e-13)
(-1.74408e-05 5.15924e-07 1.11571e-13)
(-1.75805e-05 5.15575e-07 1.12312e-13)
(-1.77224e-05 5.15223e-07 1.13063e-13)
(-5.74223e-09 5.775e-07 -0.000114732)
(-1.5289e-05 5.23341e-07 8.96682e-14)
(-1.53959e-05 5.23049e-07 9.01955e-14)
(-1.55043e-05 5.22755e-07 9.0729e-14)
(-1.56142e-05 5.22458e-07 9.12681e-14)
(-1.57257e-05 5.22158e-07 9.18138e-14)
(-1.58389e-05 5.21855e-07 9.2366e-14)
(-1.59536e-05 5.2155e-07 9.2924e-14)
(-1.607e-05 5.21241e-07 9.34892e-14)
(-1.61881e-05 5.2093e-07 9.40611e-14)
(-1.6308e-05 5.20615e-07 9.46392e-14)
(-1.64297e-05 5.20298e-07 9.52245e-14)
(-1.65532e-05 5.19978e-07 9.58168e-14)
(-1.66786e-05 5.19655e-07 9.6416e-14)
(-1.68059e-05 5.19329e-07 9.70228e-14)
(-1.69351e-05 5.18999e-07 9.76369e-14)
(-1.70663e-05 5.18667e-07 9.82586e-14)
(-1.71996e-05 5.18331e-07 9.88875e-14)
(-1.7335e-05 5.17992e-07 9.95241e-14)
(-1.74726e-05 5.17651e-07 1.00169e-13)
(-1.76123e-05 5.17305e-07 1.00821e-13)
(-1.77543e-05 5.16957e-07 1.01483e-13)
(-5.80419e-09 5.77456e-07 -0.000114723)
(-1.53197e-05 5.25026e-07 7.99322e-14)
(-1.54267e-05 5.24739e-07 8.03934e-14)
(-1.55352e-05 5.2445e-07 8.08599e-14)
(-1.56452e-05 5.24159e-07 8.13313e-14)
(-1.57568e-05 5.23864e-07 8.18083e-14)
(-1.587e-05 5.23567e-07 8.22907e-14)
(-1.59849e-05 5.23266e-07 8.27787e-14)
(-1.61014e-05 5.22963e-07 8.32719e-14)
(-1.62196e-05 5.22657e-07 8.37708e-14)
(-1.63396e-05 5.22348e-07 8.42753e-14)
(-1.64614e-05 5.22036e-07 8.47859e-14)
(-1.6585e-05 5.21721e-07 8.53024e-14)
(-1.67104e-05 5.21403e-07 8.58247e-14)
(-1.68378e-05 5.21082e-07 8.6353e-14)
(-1.69672e-05 5.20757e-07 8.68876e-14)
(-1.70985e-05 5.2043e-07 8.74291e-14)
(-1.72319e-05 5.20099e-07 8.79764e-14)
(-1.73674e-05 5.19765e-07 8.85304e-14)
(-1.7505e-05 5.19428e-07 8.90911e-14)
(-1.76448e-05 5.19088e-07 8.96582e-14)
(-1.77869e-05 5.18744e-07 9.02319e-14)
(-5.86627e-09 5.77413e-07 -0.000114714)
(-1.53509e-05 5.2675e-07 7.04817e-14)
(-1.5458e-05 5.2647e-07 7.08789e-14)
(-1.55666e-05 5.26187e-07 7.12802e-14)
(-1.56767e-05 5.25901e-07 7.16862e-14)
(-1.57885e-05 5.25612e-07 7.20965e-14)
(-1.59018e-05 5.25321e-07 7.25112e-14)
(-1.60167e-05 5.25026e-07 7.29303e-14)
(-1.61334e-05 5.24729e-07 7.33541e-14)
(-1.62517e-05 5.24429e-07 7.37825e-14)
(-1.63718e-05 5.24126e-07 7.4216e-14)
(-1.64937e-05 5.23819e-07 7.46539e-14)
(-1.66174e-05 5.2351e-07 7.5097e-14)
(-1.67429e-05 5.23198e-07 7.55442e-14)
(-1.68704e-05 5.22882e-07 7.59973e-14)
(-1.69999e-05 5.22564e-07 7.64551e-14)
(-1.71313e-05 5.22242e-07 7.69179e-14)
(-1.72648e-05 5.21917e-07 7.73861e-14)
(-1.74004e-05 5.21589e-07 7.78598e-14)
(-1.75382e-05 5.21257e-07 7.83387e-14)
(-1.76781e-05 5.20922e-07 7.88227e-14)
(-1.78203e-05 5.20584e-07 7.93134e-14)
(-5.92843e-09 5.77369e-07 -0.000114706)
(-1.53826e-05 5.28514e-07 6.13174e-14)
(-1.54898e-05 5.2824e-07 6.16526e-14)
(-1.55986e-05 5.27964e-07 6.19913e-14)
(-1.57088e-05 5.27684e-07 6.23334e-14)
(-1.58207e-05 5.27402e-07 6.26793e-14)
(-1.59341e-05 5.27117e-07 6.30283e-14)
(-1.60492e-05 5.26829e-07 6.33811e-14)
(-1.61659e-05 5.26538e-07 6.37376e-14)
(-1.62844e-05 5.26244e-07 6.40977e-14)
(-1.64046e-05 5.25948e-07 6.44616e-14)
(-1.65266e-05 5.25648e-07 6.4829e-14)
(-1.66504e-05 5.25345e-07 6.52006e-14)
(-1.67761e-05 5.25039e-07 6.5576e-14)
(-1.69037e-05 5.2473e-07 6.59555e-14)
(-1.70333e-05 5.24418e-07 6.63388e-14)
(-1.71648e-05 5.24103e-07 6.67258e-14)
(-1.72985e-05 5.23784e-07 6.71174e-14)
(-1.74342e-05 5.23462e-07 6.75133e-14)
(-1.7572e-05 5.23137e-07 6.79131e-14)
(-1.77121e-05 5.22808e-07 6.83169e-14)
(-1.78544e-05 5.22476e-07 6.87252e-14)
(-5.99069e-09 5.77325e-07 -0.000114697)
(-1.54149e-05 5.30317e-07 5.24406e-14)
(-1.55222e-05 5.3005e-07 5.27159e-14)
(-1.56311e-05 5.29781e-07 5.29934e-14)
(-1.57415e-05 5.29508e-07 5.32737e-14)
(-1.58534e-05 5.29233e-07 5.35572e-14)
(-1.5967e-05 5.28955e-07 5.38428e-14)
(-1.60822e-05 5.28674e-07 5.41313e-14)
(-1.61991e-05 5.28391e-07 5.44226e-14)
(-1.63177e-05 5.28104e-07 5.47165e-14)
(-1.6438e-05 5.27814e-07 5.50133e-14)
(-1.65601e-05 5.27522e-07 5.5313e-14)
(-1.66841e-05 5.27226e-07 5.56153e-14)
(-1.68099e-05 5.26927e-07 5.59209e-14)
(-1.69376e-05 5.26625e-07 5.62291e-14)
(-1.70673e-05 5.2632e-07 5.65404e-14)
(-1.7199e-05 5.26012e-07 5.68545e-14)
(-1.73328e-05 5.257e-07 5.71714e-14)
(-1.74686e-05 5.25385e-07 5.74917e-14)
(-1.76066e-05 5.25067e-07 5.78147e-14)
(-1.77468e-05 5.24746e-07 5.81414e-14)
(-1.78892e-05 5.24421e-07 5.84706e-14)
(-6.05302e-09 5.77282e-07 -0.000114688)
(-1.54477e-05 5.32159e-07 4.38514e-14)
(-1.55551e-05 5.319e-07 4.40688e-14)
(-1.56641e-05 5.31638e-07 4.42877e-14)
(-1.57747e-05 5.31373e-07 4.45085e-14)
(-1.58868e-05 5.31105e-07 4.47312e-14)
(-1.60004e-05 5.30835e-07 4.49557e-14)
(-1.61158e-05 5.30562e-07 4.51821e-14)
(-1.62328e-05 5.30286e-07 4.54102e-14)
(-1.63515e-05 5.30007e-07 4.56403e-14)
(-1.6472e-05 5.29725e-07 4.58723e-14)
(-1.65943e-05 5.2944e-07 4.61061e-14)
(-1.67184e-05 5.29152e-07 4.63415e-14)
(-1.68443e-05 5.28861e-07 4.65795e-14)
(-1.69722e-05 5.28567e-07 4.68188e-14)
(-1.7102e-05 5.28269e-07 4.70606e-14)
(-1.72339e-05 5.27969e-07 4.73038e-14)
(-1.73677e-05 5.27665e-07 4.75495e-14)
(-1.75037e-05 5.27358e-07 4.77964e-14)
(-1.76418e-05 5.27048e-07 4.80456e-14)
(-1.77822e-05 5.26734e-07 4.82966e-14)
(-1.79247e-05 5.26417e-07 4.85498e-14)
(-6.11543e-09 5.77238e-07 -0.000114679)
(-1.5481e-05 5.3404e-07 3.55515e-14)
(-1.55886e-05 5.33789e-07 3.57122e-14)
(-1.56977e-05 5.33535e-07 3.58745e-14)
(-1.58084e-05 5.33278e-07 3.60376e-14)
(-1.59206e-05 5.33019e-07 3.62019e-14)
(-1.60345e-05 5.32756e-07 3.63671e-14)
(-1.615e-05 5.32491e-07 3.65332e-14)
(-1.62671e-05 5.32223e-07 3.67006e-14)
(-1.6386e-05 5.31953e-07 3.68691e-14)
(-1.65066e-05 5.31679e-07 3.70385e-14)
(-1.6629e-05 5.31402e-07 3.72089e-14)
(-1.67533e-05 5.31123e-07 3.73801e-14)
(-1.68794e-05 5.3084e-07 3.75524e-14)
(-1.70074e-05 5.30554e-07 3.77257e-14)
(-1.71374e-05 5.30266e-07 3.78999e-14)
(-1.72694e-05 5.29974e-07 3.80749e-14)
(-1.74034e-05 5.29678e-07 3.82511e-14)
(-1.75395e-05 5.2938e-07 3.84278e-14)
(-1.76778e-05 5.29078e-07 3.86055e-14)
(-1.78183e-05 5.28773e-07 3.8784e-14)
(-1.7961e-05 5.28464e-07 3.89638e-14)
(-6.1779e-09 5.77195e-07 -0.000114671)
(-1.55148e-05 5.3596e-07 2.75403e-14)
(-1.56226e-05 5.35717e-07 2.76473e-14)
(-1.57319e-05 5.35471e-07 2.77548e-14)
(-1.58427e-05 5.35223e-07 2.78623e-14)
(-1.59551e-05 5.34972e-07 2.79706e-14)
(-1.60691e-05 5.34719e-07 2.8078e-14)
(-1.61847e-05 5.34462e-07 2.8187e-14)
(-1.6302e-05 5.34203e-07 2.82954e-14)
(-1.64211e-05 5.33941e-07 2.84045e-14)
(-1.65419e-05 5.33677e-07 2.85128e-14)
(-1.66644e-05 5.33409e-07 2.86225e-14)
(-1.67888e-05 5.33139e-07 2.87315e-14)
(-1.69151e-05 5.32865e-07 2.8841e-14)
(-1.70433e-05 5.32588e-07 2.89504e-14)
(-1.71734e-05 5.32309e-07 2.90594e-14)
(-1.73056e-05 5.32026e-07 2.91685e-14)
(-1.74397e-05 5.3174e-07 2.92778e-14)
(-1.75761e-05 5.31451e-07 2.93868e-14)
(-1.77145e-05 5.31158e-07 2.94957e-14)
(-1.78551e-05 5.30862e-07 2.96042e-14)
(-1.7998e-05 5.30563e-07 2.97124e-14)
(-6.24042e-09 5.77151e-07 -0.000114662)
(-1.55492e-05 5.37917e-07 1.98194e-14)
(-1.56571e-05 5.37683e-07 1.98737e-14)
(-1.57666e-05 5.37447e-07 1.99284e-14)
(-1.58775e-05 5.37208e-07 1.99826e-14)
(-1.59901e-05 5.36966e-07 2.00368e-14)
(-1.61043e-05 5.36722e-07 2.00896e-14)
(-1.622e-05 5.36475e-07 2.01421e-14)
(-1.63375e-05 5.36225e-07 2.01947e-14)
(-1.64567e-05 5.35973e-07 2.02463e-14)
(-1.65777e-05 5.35718e-07 2.02969e-14)
(-1.67004e-05 5.3546e-07 2.03471e-14)
(-1.6825e-05 5.35199e-07 2.03963e-14)
(-1.69514e-05 5.34935e-07 2.04449e-14)
(-1.70798e-05 5.34668e-07 2.04929e-14)
(-1.72101e-05 5.34398e-07 2.05392e-14)
(-1.73424e-05 5.34125e-07 2.05853e-14)
(-1.74768e-05 5.33849e-07 2.06301e-14)
(-1.76132e-05 5.3357e-07 2.06737e-14)
(-1.77518e-05 5.33288e-07 2.07164e-14)
(-1.78927e-05 5.33002e-07 2.07576e-14)
(-1.80357e-05 5.32713e-07 2.07976e-14)
(-6.30299e-09 5.77107e-07 -0.000114653)
(-1.55841e-05 5.39912e-07 1.23876e-14)
(-1.56922e-05 5.39688e-07 1.23929e-14)
(-1.58018e-05 5.39461e-07 1.2397e-14)
(-1.59129e-05 5.39231e-07 1.23994e-14)
(-1.60256e-05 5.39e-07 1.24015e-14)
(-1.614e-05 5.38765e-07 1.24019e-14)
(-1.6256e-05 5.38528e-07 1.24008e-14)
(-1.63736e-05 5.38289e-07 1.23981e-14)
(-1.6493e-05 5.38046e-07 1.23949e-14)
(-1.66141e-05 5.37801e-07 1.23898e-14)
(-1.6737e-05 5.37553e-07 1.23832e-14)
(-1.68618e-05 5.37303e-07 1.23754e-14)
(-1.69884e-05 5.37049e-07 1.23656e-14)
(-1.71169e-05 5.36793e-07 1.2354e-14)
(-1.72474e-05 5.36534e-07 1.23407e-14)
(-1.73799e-05 5.36271e-07 1.23255e-14)
(-1.75144e-05 5.36006e-07 1.23085e-14)
(-1.76511e-05 5.35737e-07 1.22895e-14)
(-1.77899e-05 5.35466e-07 1.22682e-14)
(-1.79309e-05 5.35191e-07 1.22448e-14)
(-1.80742e-05 5.34913e-07 1.2219e-14)
(-6.3656e-09 5.77064e-07 -0.000114645)
(-1.56195e-05 5.41944e-07 5.24782e-15)
(-1.57277e-05 5.4173e-07 5.20413e-15)
(-1.58375e-05 5.41513e-07 5.15994e-15)
(-1.59488e-05 5.41294e-07 5.11345e-15)
(-1.60618e-05 5.41073e-07 5.06489e-15)
(-1.61763e-05 5.40849e-07 5.01441e-15)
(-1.62924e-05 5.40622e-07 4.96233e-15)
(-1.64102e-05 5.40393e-07 4.90769e-15)
(-1.65298e-05 5.40162e-07 4.85145e-15)
(-1.66511e-05 5.39927e-07 4.79297e-15)
(-1.67742e-05 5.3969e-07 4.73208e-15)
(-1.68991e-05 5.39451e-07 4.6686e-15)
(-1.70259e-05 5.39208e-07 4.60304e-15)
(-1.71547e-05 5.38963e-07 4.53431e-15)
(-1.72854e-05 5.38715e-07 4.46383e-15)
(-1.74181e-05 5.38464e-07 4.39016e-15)
(-1.75528e-05 5.3821e-07 4.31364e-15)
(-1.76897e-05 5.37953e-07 4.23426e-15)
(-1.78287e-05 5.37693e-07 4.15154e-15)
(-1.79699e-05 5.3743e-07 4.06625e-15)
(-1.81133e-05 5.37163e-07 3.97727e-15)
(-6.42824e-09 5.7702e-07 -0.000114636)
(-1.56554e-05 5.44014e-07 -1.60167e-15)
(-1.57639e-05 5.4381e-07 -1.69102e-15)
(-1.58738e-05 5.43604e-07 -1.78195e-15)
(-1.59853e-05 5.43396e-07 -1.8763e-15)
(-1.60984e-05 5.43185e-07 -1.97217e-15)
(-1.62131e-05 5.42972e-07 -2.07115e-15)
(-1.63294e-05 5.42757e-07 -2.17263e-15)
(-1.64475e-05 5.42539e-07 -2.27711e-15)
(-1.65672e-05 5.42319e-07 -2.38416e-15)
(-1.66887e-05 5.42096e-07 -2.49495e-15)
(-1.6812e-05 5.4187e-07 -2.60745e-15)
(-1.69371e-05 5.41642e-07 -2.72332e-15)
(-1.70642e-05 5.41411e-07 -2.84284e-15)
(-1.71931e-05 5.41178e-07 -2.96521e-15)
(-1.7324e-05 5.40941e-07 -3.0917e-15)
(-1.74569e-05 5.40702e-07 -3.22159e-15)
(-1.75918e-05 5.4046e-07 -3.35454e-15)
(-1.77289e-05 5.40216e-07 -3.49154e-15)
(-1.78681e-05 5.39968e-07 -3.63274e-15)
(-1.80095e-05 5.39717e-07 -3.77781e-15)
(-1.81532e-05 5.39463e-07 -3.92717e-15)
(-6.49091e-09 5.76976e-07 -0.000114627)
(-1.63261e-05 5.82365e-07 1.95515e-15)
(-1.64389e-05 5.82398e-07 1.96839e-15)
(-1.65533e-05 5.82431e-07 1.98212e-15)
(-1.66692e-05 5.82465e-07 1.9963e-15)
(-1.67868e-05 5.82499e-07 2.01049e-15)
(-1.69061e-05 5.82534e-07 2.02504e-15)
(-1.70271e-05 5.82569e-07 2.0398e-15)
(-1.71498e-05 5.82606e-07 2.05457e-15)
(-1.72743e-05 5.82643e-07 2.06953e-15)
(-1.74006e-05 5.8268e-07 2.08482e-15)
(-1.75288e-05 5.82719e-07 2.1004e-15)
(-1.76589e-05 5.82758e-07 2.11622e-15)
(-1.77909e-05 5.82798e-07 2.13234e-15)
(-1.79249e-05 5.82839e-07 2.14804e-15)
(-1.8061e-05 5.82881e-07 2.16454e-15)
(-1.81991e-05 5.82924e-07 2.18111e-15)
(-1.83394e-05 5.82967e-07 2.19815e-15)
(-1.84818e-05 5.83011e-07 2.21588e-15)
(-1.86265e-05 5.83057e-07 2.23309e-15)
(-1.87735e-05 5.83103e-07 2.25131e-15)
(-1.89228e-05 5.8315e-07 2.26906e-15)
(-7.48472e-09 5.77026e-07 -0.000114637)
)
;

boundaryField
{
    inlet
    {
        type            calculated;
        value           uniform (0 0 0);
    }
    outlet2
    {
        type            calculated;
        value           uniform (0 0 0);
    }
    outlet1
    {
        type            calculated;
        value           uniform (0 0 0);
    }
    wall
    {
        type            calculated;
        value           uniform (0 0 0);
    }
    symmetryBottom
    {
        type            symmetry;
    }
    symmetryZ0
    {
        type            symmetry;
    }
    symmetryZ05
    {
        type            symmetry;
    }
}


// ************************************************************************* //
