/*--------------------------------*- C++ -*----------------------------------*\
| =========                 |                                                 |
| \\      /  F ield         | OpenFOAM: The Open Source CFD Toolbox           |
|  \\    /   O peration     | Version:  2412                                  |
|   \\  /    A nd           | Website:  www.openfoam.com                      |
|    \\/     M anipulation  |                                                 |
\*---------------------------------------------------------------------------*/
FoamFile
{
    version     2.0;
    format      ascii;
    arch        "LSB;label=32;scalar=64";
    class       volVectorField;
    location    "1.66832e-07";
    object      rhoU_dof3;
}
// * * * * * * * * * * * * * * * * * * * * * * * * * * * * * * * * * * * * * //

dimensions      [0 0 0 0 0 0 0];

internalField   nonuniform List<vector> 
625
(
(9.80251e-05 8.05654e-10 -0.000115939)
(9.70401e-05 8.0572e-10 -0.00011478)
(9.57266e-05 8.05736e-10 -1.61967e-17)
(9.80251e-05 -5.63368e-09 -0.000115939)
(9.70401e-05 -5.63345e-09 -0.00011478)
(9.57267e-05 -5.63291e-09 1.79396e-16)
(9.80251e-05 -5.63369e-09 -0.000115939)
(9.70401e-05 -5.63345e-09 -0.00011478)
(9.57267e-05 -5.63291e-09 3.62587e-17)
(9.80251e-05 -5.63369e-09 -0.000115939)
(9.70401e-05 -5.63345e-09 -0.00011478)
(9.57267e-05 -5.63291e-09 3.62353e-17)
(9.80251e-05 -5.63369e-09 -0.000115939)
(9.70401e-05 -5.63345e-09 -0.00011478)
(9.57267e-05 -5.63291e-09 3.62409e-17)
(9.80251e-05 -5.63369e-09 -0.000115939)
(9.70401e-05 -5.63345e-09 -0.00011478)
(9.57267e-05 -5.63291e-09 3.62688e-17)
(9.80251e-05 -5.63369e-09 -0.000115939)
(9.70401e-05 -5.63345e-09 -0.00011478)
(9.57267e-05 -5.63291e-09 3.6248e-17)
(9.80251e-05 -5.63369e-09 -0.000115939)
(9.70401e-05 -5.63345e-09 -0.00011478)
(9.57267e-05 -5.63291e-09 3.62398e-17)
(9.80251e-05 -5.63369e-09 -0.000115939)
(9.70401e-05 -5.63345e-09 -0.00011478)
(9.57267e-05 -5.63291e-09 3.62658e-17)
(9.80251e-05 -5.63369e-09 -0.000115939)
(9.70401e-05 -5.63345e-09 -0.00011478)
(9.57267e-05 -5.63291e-09 3.62414e-17)
(9.80251e-05 -5.63369e-09 -0.000115939)
(9.70401e-05 -5.63345e-09 -0.00011478)
(9.57267e-05 -5.63291e-09 3.62449e-17)
(9.80251e-05 -5.63369e-09 -0.000115939)
(9.70401e-05 -5.63345e-09 -0.00011478)
(9.57267e-05 -5.63291e-09 3.62892e-17)
(9.80251e-05 -5.63369e-09 -0.000115939)
(9.70401e-05 -5.63345e-09 -0.00011478)
(9.57267e-05 -5.63291e-09 3.62434e-17)
(9.80251e-05 -5.63369e-09 -0.000115939)
(9.70401e-05 -5.63345e-09 -0.00011478)
(9.57267e-05 -5.63291e-09 3.62582e-17)
(9.80251e-05 -5.63369e-09 -0.000115939)
(9.70401e-05 -5.63345e-09 -0.00011478)
(9.57267e-05 -5.63291e-09 3.62821e-17)
(9.80251e-05 -5.63369e-09 -0.000115939)
(9.70401e-05 -5.63345e-09 -0.00011478)
(9.57267e-05 -5.63291e-09 3.62078e-17)
(9.80251e-05 -5.63369e-09 -0.000115939)
(9.70401e-05 -5.63345e-09 -0.00011478)
(9.57267e-05 -5.63291e-09 3.6247e-17)
(9.80251e-05 -5.63369e-09 -0.000115939)
(9.70401e-05 -5.63345e-09 -0.00011478)
(9.57267e-05 -5.63291e-09 3.62638e-17)
(9.80251e-05 -5.63369e-09 -0.000115939)
(9.70401e-05 -5.63345e-09 -0.00011478)
(9.57267e-05 -5.63291e-09 3.62938e-17)
(9.80251e-05 -5.63369e-09 -0.000115939)
(9.70401e-05 -5.63345e-09 -0.00011478)
(9.57267e-05 -5.63291e-09 3.62322e-17)
(9.80251e-05 -5.63369e-09 -0.000115939)
(9.70401e-05 -5.63345e-09 -0.00011478)
(9.57267e-05 -5.63291e-09 3.63202e-17)
(9.80251e-05 -5.63369e-09 -0.000115939)
(9.70401e-05 -5.63345e-09 -0.00011478)
(9.57267e-05 -5.63291e-09 3.61824e-17)
(9.80251e-05 -5.63369e-09 -0.000115939)
(9.70401e-05 -5.63345e-09 -0.00011478)
(9.57267e-05 -5.63291e-09 3.62719e-17)
(9.80251e-05 -5.63369e-09 -0.000115939)
(9.70401e-05 -5.63345e-09 -0.00011478)
(9.57267e-05 -5.63291e-09 3.63034e-17)
(9.80386e-05 -6.43881e-09 -0.000115955)
(9.70536e-05 -6.43862e-09 -0.000114796)
(9.70393e-05 -5.55215e-09 -0.000114796)
(9.75515e-05 1.62524e-09 -0.000116159)
(9.75532e-05 1.63651e-09 -0.000116167)
(9.7555e-05 1.64793e-09 -0.000116174)
(9.75568e-05 1.65951e-09 -0.000116182)
(9.75586e-05 1.67126e-09 -0.00011619)
(9.75605e-05 1.68317e-09 -0.000116198)
(9.75624e-05 1.69526e-09 -0.000116206)
(9.75643e-05 1.70752e-09 -0.000116214)
(9.75662e-05 1.71996e-09 -0.000116222)
(9.75682e-05 1.73258e-09 -0.00011623)
(9.75702e-05 1.74539e-09 -0.000116239)
(9.75722e-05 1.75839e-09 -0.000116248)
(9.75743e-05 1.77158e-09 -0.000116256)
(9.75764e-05 1.78498e-09 -0.000116265)
(9.75785e-05 1.79857e-09 -0.000116274)
(9.75806e-05 1.81238e-09 -0.000116283)
(9.75828e-05 1.8264e-09 -0.000116293)
(9.75851e-05 1.84064e-09 -0.000116302)
(9.75873e-05 1.8551e-09 -0.000116312)
(9.75896e-05 1.86979e-09 -0.000116321)
(9.75919e-05 1.88472e-09 -0.000116331)
(0.000114468 2.23479e-09 -1.89341e-14)
(9.77579e-05 -4.87827e-09 -0.000115624)
(9.77611e-05 -4.91211e-09 -0.000115628)
(9.77644e-05 -4.94641e-09 -0.000115631)
(9.77676e-05 -4.9812e-09 -0.000115635)
(9.7771e-05 -5.01648e-09 -0.000115639)
(9.77743e-05 -5.05227e-09 -0.000115643)
(9.77778e-05 -5.08857e-09 -0.000115647)
(9.77812e-05 -5.12539e-09 -0.000115651)
(9.77848e-05 -5.16276e-09 -0.000115655)
(9.77883e-05 -5.20067e-09 -0.00011566)
(9.7792e-05 -5.23914e-09 -0.000115664)
(9.77956e-05 -5.27818e-09 -0.000115668)
(9.77994e-05 -5.31781e-09 -0.000115673)
(9.78032e-05 -5.35804e-09 -0.000115677)
(9.7807e-05 -5.39889e-09 -0.000115682)
(9.78109e-05 -5.44036e-09 -0.000115686)
(9.78149e-05 -5.48247e-09 -0.000115691)
(9.78189e-05 -5.52524e-09 -0.000115696)
(9.7823e-05 -5.56869e-09 -0.0001157)
(9.78272e-05 -5.61282e-09 -0.000115705)
(9.78314e-05 -5.65766e-09 -0.00011571)
(0.000114752 -6.70839e-09 1.86931e-15)
(9.77524e-05 -4.87874e-09 -0.000115617)
(9.77556e-05 -4.91258e-09 -0.000115621)
(9.77588e-05 -4.9469e-09 -0.000115625)
(9.7762e-05 -4.98169e-09 -0.000115629)
(9.77653e-05 -5.01698e-09 -0.000115633)
(9.77686e-05 -5.05277e-09 -0.000115636)
(9.7772e-05 -5.08908e-09 -0.00011564)
(9.77754e-05 -5.12591e-09 -0.000115644)
(9.77789e-05 -5.16328e-09 -0.000115649)
(9.77824e-05 -5.2012e-09 -0.000115653)
(9.7786e-05 -5.23968e-09 -0.000115657)
(9.77897e-05 -5.27873e-09 -0.000115661)
(9.77934e-05 -5.31837e-09 -0.000115665)
(9.77971e-05 -5.35861e-09 -0.00011567)
(9.78009e-05 -5.39946e-09 -0.000115674)
(9.78048e-05 -5.44094e-09 -0.000115679)
(9.78087e-05 -5.48306e-09 -0.000115684)
(9.78127e-05 -5.52584e-09 -0.000115688)
(9.78167e-05 -5.5693e-09 -0.000115693)
(9.78208e-05 -5.61344e-09 -0.000115698)
(9.7825e-05 -5.65828e-09 -0.000115703)
(0.000114744 -6.70913e-09 1.56422e-15)
(9.77469e-05 -4.87874e-09 -0.000115611)
(9.775e-05 -4.91258e-09 -0.000115615)
(9.77532e-05 -4.94689e-09 -0.000115618)
(9.77564e-05 -4.98169e-09 -0.000115622)
(9.77596e-05 -5.01698e-09 -0.000115626)
(9.77629e-05 -5.05277e-09 -0.00011563)
(9.77662e-05 -5.08908e-09 -0.000115634)
(9.77696e-05 -5.12591e-09 -0.000115638)
(9.77731e-05 -5.16328e-09 -0.000115642)
(9.77766e-05 -5.2012e-09 -0.000115646)
(9.77801e-05 -5.23968e-09 -0.00011565)
(9.77837e-05 -5.27873e-09 -0.000115654)
(9.77873e-05 -5.31837e-09 -0.000115658)
(9.7791e-05 -5.35861e-09 -0.000115663)
(9.77948e-05 -5.39946e-09 -0.000115667)
(9.77986e-05 -5.44094e-09 -0.000115672)
(9.78025e-05 -5.48306e-09 -0.000115676)
(9.78064e-05 -5.52584e-09 -0.000115681)
(9.78104e-05 -5.56929e-09 -0.000115686)
(9.78145e-05 -5.61344e-09 -0.00011569)
(9.78186e-05 -5.65828e-09 -0.000115695)
(0.000114736 -6.70913e-09 1.62422e-15)
(9.77414e-05 -4.87874e-09 -0.000115604)
(9.77444e-05 -4.91258e-09 -0.000115608)
(9.77475e-05 -4.94689e-09 -0.000115612)
(9.77507e-05 -4.98169e-09 -0.000115615)
(9.77539e-05 -5.01698e-09 -0.000115619)
(9.77572e-05 -5.05277e-09 -0.000115623)
(9.77605e-05 -5.08908e-09 -0.000115627)
(9.77638e-05 -5.12591e-09 -0.000115631)
(9.77672e-05 -5.16328e-09 -0.000115635)
(9.77707e-05 -5.20119e-09 -0.000115639)
(9.77742e-05 -5.23967e-09 -0.000115643)
(9.77777e-05 -5.27873e-09 -0.000115647)
(9.77813e-05 -5.31837e-09 -0.000115651)
(9.7785e-05 -5.3586e-09 -0.000115656)
(9.77887e-05 -5.39946e-09 -0.00011566)
(9.77924e-05 -5.44094e-09 -0.000115664)
(9.77963e-05 -5.48306e-09 -0.000115669)
(9.78001e-05 -5.52584e-09 -0.000115673)
(9.78041e-05 -5.56929e-09 -0.000115678)
(9.78081e-05 -5.61343e-09 -0.000115683)
(9.78122e-05 -5.65828e-09 -0.000115688)
(0.000114729 -6.70913e-09 1.68344e-15)
(9.77358e-05 -4.87874e-09 -0.000115598)
(9.77389e-05 -4.91258e-09 -0.000115601)
(9.77419e-05 -4.94689e-09 -0.000115605)
(9.77451e-05 -4.98169e-09 -0.000115609)
(9.77482e-05 -5.01697e-09 -0.000115612)
(9.77514e-05 -5.05277e-09 -0.000115616)
(9.77547e-05 -5.08907e-09 -0.00011562)
(9.7758e-05 -5.12591e-09 -0.000115624)
(9.77614e-05 -5.16327e-09 -0.000115628)
(9.77648e-05 -5.20119e-09 -0.000115632)
(9.77682e-05 -5.23967e-09 -0.000115636)
(9.77717e-05 -5.27872e-09 -0.00011564)
(9.77753e-05 -5.31836e-09 -0.000115644)
(9.77789e-05 -5.3586e-09 -0.000115648)
(9.77825e-05 -5.39946e-09 -0.000115653)
(9.77863e-05 -5.44094e-09 -0.000115657)
(9.779e-05 -5.48306e-09 -0.000115662)
(9.77939e-05 -5.52584e-09 -0.000115666)
(9.77978e-05 -5.56929e-09 -0.000115671)
(9.78017e-05 -5.61343e-09 -0.000115675)
(9.78058e-05 -5.65828e-09 -0.00011568)
(0.000114721 -6.70913e-09 1.74334e-15)
(9.77303e-05 -4.87873e-09 -0.000115591)
(9.77333e-05 -4.91258e-09 -0.000115595)
(9.77363e-05 -4.94689e-09 -0.000115598)
(9.77394e-05 -4.98168e-09 -0.000115602)
(9.77425e-05 -5.01697e-09 -0.000115606)
(9.77457e-05 -5.05276e-09 -0.000115609)
(9.77489e-05 -5.08907e-09 -0.000115613)
(9.77522e-05 -5.1259e-09 -0.000115617)
(9.77555e-05 -5.16327e-09 -0.000115621)
(9.77589e-05 -5.20119e-09 -0.000115625)
(9.77623e-05 -5.23967e-09 -0.000115629)
(9.77657e-05 -5.27872e-09 -0.000115633)
(9.77692e-05 -5.31836e-09 -0.000115637)
(9.77728e-05 -5.3586e-09 -0.000115641)
(9.77764e-05 -5.39945e-09 -0.000115646)
(9.77801e-05 -5.44093e-09 -0.00011565)
(9.77838e-05 -5.48306e-09 -0.000115654)
(9.77876e-05 -5.52584e-09 -0.000115659)
(9.77915e-05 -5.56929e-09 -0.000115663)
(9.77954e-05 -5.61343e-09 -0.000115668)
(9.77993e-05 -5.65828e-09 -0.000115672)
(0.000114714 -6.70912e-09 1.80355e-15)
(9.77248e-05 -4.87873e-09 -0.000115585)
(9.77277e-05 -4.91257e-09 -0.000115588)
(9.77307e-05 -4.94689e-09 -0.000115592)
(9.77338e-05 -4.98168e-09 -0.000115595)
(9.77369e-05 -5.01697e-09 -0.000115599)
(9.774e-05 -5.05276e-09 -0.000115603)
(9.77432e-05 -5.08907e-09 -0.000115606)
(9.77464e-05 -5.1259e-09 -0.00011561)
(9.77497e-05 -5.16327e-09 -0.000115614)
(9.7753e-05 -5.20119e-09 -0.000115618)
(9.77563e-05 -5.23967e-09 -0.000115622)
(9.77598e-05 -5.27872e-09 -0.000115626)
(9.77632e-05 -5.31836e-09 -0.00011563)
(9.77667e-05 -5.3586e-09 -0.000115634)
(9.77703e-05 -5.39945e-09 -0.000115638)
(9.77739e-05 -5.44093e-09 -0.000115643)
(9.77776e-05 -5.48305e-09 -0.000115647)
(9.77814e-05 -5.52583e-09 -0.000115651)
(9.77852e-05 -5.56929e-09 -0.000115656)
(9.7789e-05 -5.61343e-09 -0.00011566)
(9.77929e-05 -5.65827e-09 -0.000115665)
(0.000114706 -6.70912e-09 1.86344e-15)
(9.77192e-05 -4.87873e-09 -0.000115578)
(9.77222e-05 -4.91257e-09 -0.000115582)
(9.77251e-05 -4.94688e-09 -0.000115585)
(9.77281e-05 -4.98168e-09 -0.000115589)
(9.77312e-05 -5.01697e-09 -0.000115592)
(9.77343e-05 -5.05276e-09 -0.000115596)
(9.77374e-05 -5.08907e-09 -0.0001156)
(9.77406e-05 -5.1259e-09 -0.000115603)
(9.77438e-05 -5.16327e-09 -0.000115607)
(9.77471e-05 -5.20119e-09 -0.000115611)
(9.77504e-05 -5.23967e-09 -0.000115615)
(9.77538e-05 -5.27872e-09 -0.000115619)
(9.77572e-05 -5.31836e-09 -0.000115623)
(9.77607e-05 -5.3586e-09 -0.000115627)
(9.77642e-05 -5.39945e-09 -0.000115631)
(9.77678e-05 -5.44093e-09 -0.000115635)
(9.77714e-05 -5.48305e-09 -0.00011564)
(9.77751e-05 -5.52583e-09 -0.000115644)
(9.77788e-05 -5.56928e-09 -0.000115648)
(9.77827e-05 -5.61342e-09 -0.000115653)
(9.77865e-05 -5.65827e-09 -0.000115657)
(0.000114698 -6.70912e-09 1.92288e-15)
(9.77136e-05 -4.88283e-09 -0.000115572)
(9.77165e-05 -4.9167e-09 -0.000115575)
(9.77194e-05 -4.95104e-09 -0.000115579)
(9.77224e-05 -4.98587e-09 -0.000115582)
(9.77254e-05 -5.02119e-09 -0.000115586)
(9.77285e-05 -5.05701e-09 -0.000115589)
(9.77316e-05 -5.09335e-09 -0.000115593)
(9.77347e-05 -5.13021e-09 -0.000115596)
(9.77379e-05 -5.16761e-09 -0.0001156)
(9.77411e-05 -5.20556e-09 -0.000115604)
(9.77444e-05 -5.24407e-09 -0.000115608)
(9.77477e-05 -5.28316e-09 -0.000115612)
(9.77511e-05 -5.32283e-09 -0.000115616)
(9.77545e-05 -5.3631e-09 -0.00011562)
(9.7758e-05 -5.40399e-09 -0.000115624)
(9.77615e-05 -5.4455e-09 -0.000115628)
(9.77651e-05 -5.48766e-09 -0.000115632)
(9.77688e-05 -5.53048e-09 -0.000115637)
(9.77725e-05 -5.57397e-09 -0.000115641)
(9.77762e-05 -5.61814e-09 -0.000115645)
(9.778e-05 -5.66303e-09 -0.00011565)
(0.000114691 -6.71476e-09 1.98189e-15)
(9.77072e-05 -4.93628e-09 -0.000115564)
(9.77101e-05 -4.97052e-09 -0.000115568)
(9.77129e-05 -5.00523e-09 -0.000115571)
(9.77159e-05 -5.04044e-09 -0.000115574)
(9.77188e-05 -5.07614e-09 -0.000115578)
(9.77218e-05 -5.11236e-09 -0.000115581)
(9.77249e-05 -5.14909e-09 -0.000115585)
(9.7728e-05 -5.18636e-09 -0.000115589)
(9.77311e-05 -5.22417e-09 -0.000115592)
(9.77343e-05 -5.26253e-09 -0.000115596)
(9.77375e-05 -5.30147e-09 -0.0001156)
(9.77408e-05 -5.34098e-09 -0.000115604)
(9.77441e-05 -5.38109e-09 -0.000115607)
(9.77475e-05 -5.4218e-09 -0.000115611)
(9.77509e-05 -5.46313e-09 -0.000115615)
(9.77544e-05 -5.5051e-09 -0.00011562)
(9.77579e-05 -5.54772e-09 -0.000115624)
(9.77615e-05 -5.59101e-09 -0.000115628)
(9.77651e-05 -5.63497e-09 -0.000115632)
(9.77688e-05 -5.67963e-09 -0.000115637)
(9.77726e-05 -5.72501e-09 -0.000115641)
(0.000114682 -6.78825e-09 2.80092e-15)
(9.77008e-05 -4.98982e-09 -0.000115557)
(9.77036e-05 -5.02443e-09 -0.00011556)
(9.77064e-05 -5.05952e-09 -0.000115563)
(9.77093e-05 -5.09511e-09 -0.000115567)
(9.77122e-05 -5.1312e-09 -0.00011557)
(9.77152e-05 -5.16781e-09 -0.000115573)
(9.77182e-05 -5.20494e-09 -0.000115577)
(9.77212e-05 -5.24261e-09 -0.000115581)
(9.77243e-05 -5.28083e-09 -0.000115584)
(9.77274e-05 -5.31961e-09 -0.000115588)
(9.77306e-05 -5.35897e-09 -0.000115592)
(9.77338e-05 -5.39891e-09 -0.000115595)
(9.77371e-05 -5.43945e-09 -0.000115599)
(9.77404e-05 -5.48061e-09 -0.000115603)
(9.77438e-05 -5.52239e-09 -0.000115607)
(9.77472e-05 -5.56481e-09 -0.000115611)
(9.77507e-05 -5.60789e-09 -0.000115615)
(9.77542e-05 -5.65165e-09 -0.000115619)
(9.77578e-05 -5.69609e-09 -0.000115624)
(9.77614e-05 -5.74123e-09 -0.000115628)
(9.77651e-05 -5.7871e-09 -0.000115632)
(0.000114673 -6.86188e-09 2.7846e-15)
(9.76944e-05 -5.04345e-09 -0.000115549)
(9.76971e-05 -5.07843e-09 -0.000115552)
(9.76999e-05 -5.11391e-09 -0.000115556)
(9.77027e-05 -5.14988e-09 -0.000115559)
(9.77056e-05 -5.18636e-09 -0.000115562)
(9.77085e-05 -5.22336e-09 -0.000115566)
(9.77115e-05 -5.26089e-09 -0.000115569)
(9.77145e-05 -5.29896e-09 -0.000115573)
(9.77175e-05 -5.33759e-09 -0.000115576)
(9.77206e-05 -5.37679e-09 -0.00011558)
(9.77237e-05 -5.41657e-09 -0.000115583)
(9.77269e-05 -5.45694e-09 -0.000115587)
(9.77301e-05 -5.49792e-09 -0.000115591)
(9.77334e-05 -5.53951e-09 -0.000115595)
(9.77367e-05 -5.58174e-09 -0.000115599)
(9.774e-05 -5.62462e-09 -0.000115603)
(9.77435e-05 -5.66817e-09 -0.000115607)
(9.77469e-05 -5.71239e-09 -0.000115611)
(9.77505e-05 -5.75731e-09 -0.000115615)
(9.7754e-05 -5.80294e-09 -0.000115619)
(9.77577e-05 -5.8493e-09 -0.000115623)
(0.000114664 -6.93564e-09 2.7703e-15)
(9.76879e-05 -5.09717e-09 -0.000115541)
(9.76907e-05 -5.13253e-09 -0.000115545)
(9.76934e-05 -5.16837e-09 -0.000115548)
(9.76962e-05 -5.20473e-09 -0.000115551)
(9.7699e-05 -5.2416e-09 -0.000115554)
(9.77019e-05 -5.27899e-09 -0.000115558)
(9.77048e-05 -5.31692e-09 -0.000115561)
(9.77077e-05 -5.3554e-09 -0.000115565)
(9.77107e-05 -5.39444e-09 -0.000115568)
(9.77137e-05 -5.43406e-09 -0.000115572)
(9.77168e-05 -5.47426e-09 -0.000115575)
(9.77199e-05 -5.51506e-09 -0.000115579)
(9.77231e-05 -5.55647e-09 -0.000115583)
(9.77263e-05 -5.59851e-09 -0.000115586)
(9.77296e-05 -5.64119e-09 -0.00011559)
(9.77329e-05 -5.68453e-09 -0.000115594)
(9.77362e-05 -5.72854e-09 -0.000115598)
(9.77397e-05 -5.77323e-09 -0.000115602)
(9.77431e-05 -5.81863e-09 -0.000115606)
(9.77466e-05 -5.86474e-09 -0.00011561)
(9.77502e-05 -5.9116e-09 -0.000115615)
(0.000114655 -7.00951e-09 2.75842e-15)
(9.76815e-05 -5.15097e-09 -0.000115534)
(9.76842e-05 -5.18669e-09 -0.000115537)
(9.76869e-05 -5.22292e-09 -0.00011554)
(9.76896e-05 -5.25966e-09 -0.000115543)
(9.76924e-05 -5.29692e-09 -0.000115547)
(9.76952e-05 -5.3347e-09 -0.00011555)
(9.76981e-05 -5.37304e-09 -0.000115553)
(9.77009e-05 -5.41192e-09 -0.000115557)
(9.77039e-05 -5.45138e-09 -0.00011556)
(9.77069e-05 -5.49141e-09 -0.000115564)
(9.77099e-05 -5.53203e-09 -0.000115567)
(9.7713e-05 -5.57326e-09 -0.000115571)
(9.77161e-05 -5.61511e-09 -0.000115574)
(9.77192e-05 -5.6576e-09 -0.000115578)
(9.77224e-05 -5.70073e-09 -0.000115582)
(9.77257e-05 -5.74452e-09 -0.000115586)
(9.7729e-05 -5.78899e-09 -0.00011559)
(9.77324e-05 -5.83416e-09 -0.000115594)
(9.77358e-05 -5.88004e-09 -0.000115598)
(9.77393e-05 -5.92664e-09 -0.000115602)
(9.77428e-05 -5.97399e-09 -0.000115606)
(0.000114647 -7.08349e-09 2.74886e-15)
(9.76751e-05 -5.20483e-09 -0.000115526)
(9.76777e-05 -5.24094e-09 -0.000115529)
(9.76804e-05 -5.27754e-09 -0.000115532)
(9.7683e-05 -5.31466e-09 -0.000115536)
(9.76858e-05 -5.35231e-09 -0.000115539)
(9.76885e-05 -5.39049e-09 -0.000115542)
(9.76913e-05 -5.42922e-09 -0.000115545)
(9.76942e-05 -5.46852e-09 -0.000115549)
(9.76971e-05 -5.50838e-09 -0.000115552)
(9.77e-05 -5.54883e-09 -0.000115556)
(9.7703e-05 -5.58988e-09 -0.000115559)
(9.7706e-05 -5.63155e-09 -0.000115563)
(9.77091e-05 -5.67383e-09 -0.000115566)
(9.77122e-05 -5.71676e-09 -0.00011557)
(9.77153e-05 -5.76034e-09 -0.000115574)
(9.77185e-05 -5.80459e-09 -0.000115577)
(9.77218e-05 -5.84953e-09 -0.000115581)
(9.77251e-05 -5.89517e-09 -0.000115585)
(9.77284e-05 -5.94152e-09 -0.000115589)
(9.77319e-05 -5.98861e-09 -0.000115593)
(9.77353e-05 -6.03646e-09 -0.000115597)
(0.000114638 -7.15757e-09 2.7405e-15)
(9.76687e-05 -5.25877e-09 -0.000115519)
(9.76712e-05 -5.29524e-09 -0.000115522)
(9.76738e-05 -5.33223e-09 -0.000115525)
(9.76765e-05 -5.36973e-09 -0.000115528)
(9.76792e-05 -5.40777e-09 -0.000115531)
(9.76819e-05 -5.44635e-09 -0.000115534)
(9.76846e-05 -5.48548e-09 -0.000115537)
(9.76874e-05 -5.52518e-09 -0.000115541)
(9.76903e-05 -5.56546e-09 -0.000115544)
(9.76931e-05 -5.60633e-09 -0.000115547)
(9.76961e-05 -5.6478e-09 -0.000115551)
(9.7699e-05 -5.6899e-09 -0.000115554)
(9.7702e-05 -5.73262e-09 -0.000115558)
(9.77051e-05 -5.77599e-09 -0.000115561)
(9.77082e-05 -5.82003e-09 -0.000115565)
(9.77114e-05 -5.86474e-09 -0.000115569)
(9.77146e-05 -5.91014e-09 -0.000115573)
(9.77178e-05 -5.95625e-09 -0.000115576)
(9.77211e-05 -6.00309e-09 -0.00011558)
(9.77244e-05 -6.05066e-09 -0.000115584)
(9.77279e-05 -6.099e-09 -0.000115588)
(0.000114629 -7.23173e-09 2.73419e-15)
(9.76622e-05 -5.31275e-09 -0.000115511)
(9.76647e-05 -5.3496e-09 -0.000115514)
(9.76673e-05 -5.38697e-09 -0.000115517)
(9.76699e-05 -5.42486e-09 -0.00011552)
(9.76725e-05 -5.46328e-09 -0.000115523)
(9.76752e-05 -5.50226e-09 -0.000115526)
(9.76779e-05 -5.54179e-09 -0.00011553)
(9.76807e-05 -5.5819e-09 -0.000115533)
(9.76835e-05 -5.62259e-09 -0.000115536)
(9.76863e-05 -5.66388e-09 -0.000115539)
(9.76892e-05 -5.70578e-09 -0.000115543)
(9.76921e-05 -5.74831e-09 -0.000115546)
(9.7695e-05 -5.79147e-09 -0.00011555)
(9.7698e-05 -5.83529e-09 -0.000115553)
(9.77011e-05 -5.87978e-09 -0.000115557)
(9.77042e-05 -5.92494e-09 -0.00011556)
(9.77073e-05 -5.97081e-09 -0.000115564)
(9.77105e-05 -6.0174e-09 -0.000115568)
(9.77138e-05 -6.06471e-09 -0.000115572)
(9.7717e-05 -6.11278e-09 -0.000115575)
(9.77204e-05 -6.16161e-09 -0.000115579)
(0.00011462 -7.30598e-09 2.73006e-15)
(9.76558e-05 -5.36679e-09 -0.000115504)
(9.76583e-05 -5.40402e-09 -0.000115506)
(9.76608e-05 -5.44176e-09 -0.000115509)
(9.76633e-05 -5.48004e-09 -0.000115512)
(9.76659e-05 -5.51885e-09 -0.000115515)
(9.76685e-05 -5.55822e-09 -0.000115519)
(9.76712e-05 -5.59816e-09 -0.000115522)
(9.76739e-05 -5.63868e-09 -0.000115525)
(9.76766e-05 -5.67978e-09 -0.000115528)
(9.76794e-05 -5.72149e-09 -0.000115531)
(9.76822e-05 -5.76382e-09 -0.000115535)
(9.76851e-05 -5.80678e-09 -0.000115538)
(9.7688e-05 -5.85038e-09 -0.000115541)
(9.7691e-05 -5.89464e-09 -0.000115545)
(9.7694e-05 -5.93958e-09 -0.000115548)
(9.7697e-05 -5.98521e-09 -0.000115552)
(9.77001e-05 -6.03154e-09 -0.000115556)
(9.77032e-05 -6.0786e-09 -0.000115559)
(9.77064e-05 -6.1264e-09 -0.000115563)
(9.77096e-05 -6.17495e-09 -0.000115567)
(9.77129e-05 -6.22428e-09 -0.000115571)
(0.000114611 -7.38029e-09 2.72804e-15)
(9.76493e-05 -5.42087e-09 -0.000115496)
(9.76518e-05 -5.45847e-09 -0.000115499)
(9.76542e-05 -5.4966e-09 -0.000115502)
(9.76568e-05 -5.53526e-09 -0.000115505)
(9.76593e-05 -5.57447e-09 -0.000115508)
(9.76619e-05 -5.61423e-09 -0.000115511)
(9.76645e-05 -5.65457e-09 -0.000115514)
(9.76671e-05 -5.6955e-09 -0.000115517)
(9.76698e-05 -5.73702e-09 -0.00011552)
(9.76726e-05 -5.77915e-09 -0.000115523)
(9.76753e-05 -5.8219e-09 -0.000115526)
(9.76781e-05 -5.86529e-09 -0.00011553)
(9.7681e-05 -5.90933e-09 -0.000115533)
(9.76839e-05 -5.95404e-09 -0.000115537)
(9.76868e-05 -5.99943e-09 -0.00011554)
(9.76898e-05 -6.04552e-09 -0.000115543)
(9.76928e-05 -6.09232e-09 -0.000115547)
(9.76959e-05 -6.13985e-09 -0.000115551)
(9.76991e-05 -6.18813e-09 -0.000115554)
(9.77022e-05 -6.23717e-09 -0.000115558)
(9.77055e-05 -6.287e-09 -0.000115562)
(0.000114602 -7.45466e-09 2.72772e-15)
(9.76429e-05 -5.47499e-09 -0.000115488)
(9.76453e-05 -5.51296e-09 -0.000115491)
(9.76477e-05 -5.55147e-09 -0.000115494)
(9.76502e-05 -5.59052e-09 -0.000115497)
(9.76527e-05 -5.63012e-09 -0.0001155)
(9.76552e-05 -5.67028e-09 -0.000115503)
(9.76578e-05 -5.71102e-09 -0.000115506)
(9.76604e-05 -5.75235e-09 -0.000115509)
(9.7663e-05 -5.79429e-09 -0.000115512)
(9.76657e-05 -5.83684e-09 -0.000115515)
(9.76684e-05 -5.88002e-09 -0.000115518)
(9.76712e-05 -5.92384e-09 -0.000115522)
(9.7674e-05 -5.96832e-09 -0.000115525)
(9.76768e-05 -6.01348e-09 -0.000115528)
(9.76797e-05 -6.05932e-09 -0.000115532)
(9.76826e-05 -6.10587e-09 -0.000115535)
(9.76856e-05 -6.15314e-09 -0.000115539)
(9.76886e-05 -6.20114e-09 -0.000115542)
(9.76917e-05 -6.2499e-09 -0.000115546)
(9.76948e-05 -6.29943e-09 -0.000115549)
(9.7698e-05 -6.34976e-09 -0.000115553)
(0.000114593 -7.52908e-09 2.72936e-15)
(9.76365e-05 -5.52913e-09 -0.000115481)
(9.76388e-05 -5.56748e-09 -0.000115484)
(9.76412e-05 -5.60637e-09 -0.000115486)
(9.76436e-05 -5.6458e-09 -0.000115489)
(9.7646e-05 -5.68579e-09 -0.000115492)
(9.76485e-05 -5.72636e-09 -0.000115495)
(9.7651e-05 -5.7675e-09 -0.000115498)
(9.76536e-05 -5.80924e-09 -0.000115501)
(9.76562e-05 -5.85159e-09 -0.000115504)
(9.76588e-05 -5.89456e-09 -0.000115507)
(9.76615e-05 -5.93817e-09 -0.00011551)
(9.76642e-05 -5.98242e-09 -0.000115513)
(9.76669e-05 -6.02734e-09 -0.000115517)
(9.76697e-05 -6.07295e-09 -0.00011552)
(9.76726e-05 -6.11924e-09 -0.000115523)
(9.76754e-05 -6.16625e-09 -0.000115527)
(9.76784e-05 -6.21398e-09 -0.00011553)
(9.76813e-05 -6.26246e-09 -0.000115533)
(9.76843e-05 -6.31171e-09 -0.000115537)
(9.76874e-05 -6.36173e-09 -0.000115541)
(9.76905e-05 -6.41255e-09 -0.000115544)
(0.000114585 -7.60354e-09 2.73319e-15)
(9.763e-05 -5.5833e-09 -0.000115473)
(9.76323e-05 -5.62203e-09 -0.000115476)
(9.76346e-05 -5.66129e-09 -0.000115479)
(9.7637e-05 -5.70111e-09 -0.000115481)
(9.76394e-05 -5.74149e-09 -0.000115484)
(9.76419e-05 -5.78245e-09 -0.000115487)
(9.76443e-05 -5.824e-09 -0.00011549)
(9.76468e-05 -5.86615e-09 -0.000115493)
(9.76494e-05 -5.90891e-09 -0.000115496)
(9.76519e-05 -5.9523e-09 -0.000115499)
(9.76546e-05 -5.99634e-09 -0.000115502)
(9.76572e-05 -6.04103e-09 -0.000115505)
(9.76599e-05 -6.08639e-09 -0.000115508)
(9.76627e-05 -6.13244e-09 -0.000115512)
(9.76654e-05 -6.17919e-09 -0.000115515)
(9.76683e-05 -6.22665e-09 -0.000115518)
(9.76711e-05 -6.27486e-09 -0.000115521)
(9.7674e-05 -6.32381e-09 -0.000115525)
(9.7677e-05 -6.37354e-09 -0.000115528)
(9.768e-05 -6.42405e-09 -0.000115532)
(9.7683e-05 -6.47537e-09 -0.000115535)
(0.000114576 -7.67803e-09 2.73889e-15)
(9.76236e-05 -5.63748e-09 -0.000115466)
(9.76258e-05 -5.67658e-09 -0.000115468)
(9.76281e-05 -5.71623e-09 -0.000115471)
(9.76304e-05 -5.75643e-09 -0.000115474)
(9.76328e-05 -5.79721e-09 -0.000115476)
(9.76352e-05 -5.83856e-09 -0.000115479)
(9.76376e-05 -5.88052e-09 -0.000115482)
(9.76401e-05 -5.92307e-09 -0.000115485)
(9.76425e-05 -5.96625e-09 -0.000115488)
(9.76451e-05 -6.01006e-09 -0.000115491)
(9.76476e-05 -6.05452e-09 -0.000115494)
(9.76502e-05 -6.09965e-09 -0.000115497)
(9.76529e-05 -6.14545e-09 -0.0001155)
(9.76556e-05 -6.19194e-09 -0.000115503)
(9.76583e-05 -6.23915e-09 -0.000115506)
(9.76611e-05 -6.28707e-09 -0.00011551)
(9.76639e-05 -6.33575e-09 -0.000115513)
(9.76667e-05 -6.38517e-09 -0.000115516)
(9.76696e-05 -6.43538e-09 -0.00011552)
(9.76726e-05 -6.48638e-09 -0.000115523)
(9.76756e-05 -6.5382e-09 -0.000115527)
(0.000114567 -7.75253e-09 2.7466e-15)
(9.76308e-05 -6.50514e-09 -0.000115474)
(9.76331e-05 -6.55026e-09 -0.000115477)
(9.76354e-05 -6.59601e-09 -0.00011548)
(9.76378e-05 -6.64241e-09 -0.000115483)
(9.76402e-05 -6.68946e-09 -0.000115485)
(9.76426e-05 -6.73719e-09 -0.000115488)
(9.76451e-05 -6.7856e-09 -0.000115491)
(9.76476e-05 -6.83471e-09 -0.000115494)
(9.76502e-05 -6.88453e-09 -0.000115497)
(9.76528e-05 -6.93509e-09 -0.0001155)
(9.76554e-05 -6.9864e-09 -0.000115503)
(9.76581e-05 -7.03847e-09 -0.000115506)
(9.76608e-05 -7.09132e-09 -0.000115509)
(9.76635e-05 -7.14497e-09 -0.000115513)
(9.76663e-05 -7.19944e-09 -0.000115516)
(9.76691e-05 -7.25475e-09 -0.000115519)
(9.7672e-05 -7.31092e-09 -0.000115523)
(9.76749e-05 -7.36796e-09 -0.000115526)
(9.76779e-05 -7.42589e-09 -0.00011553)
(9.76809e-05 -7.48475e-09 -0.000115533)
(9.76839e-05 -7.54455e-09 -0.000115537)
(0.000114577 -8.9459e-09 2.54528e-15)
)
;

boundaryField
{
    inlet
    {
        type            calculated;
        value           uniform (0 0 0);
    }
    outlet2
    {
        type            calculated;
        value           uniform (0 0 0);
    }
    outlet1
    {
        type            calculated;
        value           uniform (0 0 0);
    }
    wall
    {
        type            calculated;
        value           uniform (0 0 0);
    }
    symmetryBottom
    {
        type            symmetry;
    }
    symmetryZ0
    {
        type            symmetry;
    }
    symmetryZ05
    {
        type            symmetry;
    }
}


// ************************************************************************* //
