/*--------------------------------*- C++ -*----------------------------------*\
| =========                 |                                                 |
| \\      /  F ield         | OpenFOAM: The Open Source CFD Toolbox           |
|  \\    /   O peration     | Version:  2412                                  |
|   \\  /    A nd           | Website:  www.openfoam.com                      |
|    \\/     M anipulation  |                                                 |
\*---------------------------------------------------------------------------*/
FoamFile
{
    version     2.0;
    format      ascii;
    arch        "LSB;label=32;scalar=64";
    class       volVectorField;
    location    "1.66832e-07";
    object      rhoU_dof1;
}
// * * * * * * * * * * * * * * * * * * * * * * * * * * * * * * * * * * * * * //

dimensions      [0 0 0 0 0 0 0];

internalField   nonuniform List<vector> 
625
(
(0.00584211 4.83394e-08 5.78417e-07)
(-5.12811e-14 -7.13221e-17 5.68758e-07)
(-9.32698e-07 2.89046e-05 5.76325e-07)
(0.00584211 -2.41423e-07 5.78418e-07)
(-5.12825e-14 -2.61036e-16 5.68758e-07)
(-6.90717e-07 3.62556e-08 5.75841e-07)
(0.00584211 -2.41423e-07 5.78417e-07)
(-5.12839e-14 -2.61247e-16 5.68758e-07)
(-7.71305e-07 4.43246e-08 5.75841e-07)
(0.00584211 -2.41423e-07 5.78417e-07)
(-5.1282e-14 -2.61253e-16 5.68758e-07)
(-7.71305e-07 4.43246e-08 5.75841e-07)
(0.00584211 -2.41423e-07 5.78417e-07)
(-5.12819e-14 -2.61255e-16 5.68758e-07)
(-7.71305e-07 4.43246e-08 5.75841e-07)
(0.00584211 -2.41423e-07 5.78417e-07)
(-5.12831e-14 -2.61255e-16 5.68758e-07)
(-7.71305e-07 4.43246e-08 5.75841e-07)
(0.00584211 -2.41423e-07 5.78417e-07)
(-5.12821e-14 -2.61253e-16 5.68758e-07)
(-7.71305e-07 4.43246e-08 5.75841e-07)
(0.00584211 -2.41423e-07 5.78417e-07)
(-5.12826e-14 -2.61249e-16 5.68758e-07)
(-7.71305e-07 4.43246e-08 5.75841e-07)
(0.00584211 -2.41423e-07 5.78417e-07)
(-5.12825e-14 -2.61252e-16 5.68758e-07)
(-7.71305e-07 4.43246e-08 5.75841e-07)
(0.00584211 -2.41423e-07 5.78417e-07)
(-5.12825e-14 -2.61254e-16 5.68758e-07)
(-7.71305e-07 4.43246e-08 5.75841e-07)
(0.00584211 -2.41423e-07 5.78417e-07)
(-5.12823e-14 -2.61253e-16 5.68758e-07)
(-7.71305e-07 4.43246e-08 5.75841e-07)
(0.00584211 -2.41423e-07 5.78417e-07)
(-5.12825e-14 -2.61253e-16 5.68758e-07)
(-7.71305e-07 4.43246e-08 5.75841e-07)
(0.00584211 -2.41423e-07 5.78417e-07)
(-5.12817e-14 -2.61251e-16 5.68758e-07)
(-7.71305e-07 4.43246e-08 5.75841e-07)
(0.00584211 -2.41423e-07 5.78417e-07)
(-5.12832e-14 -2.61249e-16 5.68758e-07)
(-7.71305e-07 4.43246e-08 5.75841e-07)
(0.00584211 -2.41423e-07 5.78417e-07)
(-5.12832e-14 -2.61248e-16 5.68758e-07)
(-7.71305e-07 4.43246e-08 5.75841e-07)
(0.00584211 -2.41423e-07 5.78417e-07)
(-5.1283e-14 -2.61253e-16 5.68758e-07)
(-7.71305e-07 4.43246e-08 5.75841e-07)
(0.00584211 -2.41423e-07 5.78417e-07)
(-5.1285e-14 -2.61251e-16 5.68758e-07)
(-7.71305e-07 4.43246e-08 5.75841e-07)
(0.00584211 -2.41423e-07 5.78417e-07)
(-5.12811e-14 -2.61249e-16 5.68758e-07)
(-7.71305e-07 4.43246e-08 5.75841e-07)
(0.00584211 -2.41423e-07 5.78417e-07)
(-5.1283e-14 -2.61252e-16 5.68758e-07)
(-7.71305e-07 4.43246e-08 5.75841e-07)
(0.00584211 -2.41423e-07 5.78417e-07)
(-5.12829e-14 -2.61254e-16 5.68758e-07)
(-7.71305e-07 4.43246e-08 5.75841e-07)
(0.00584211 -2.41423e-07 5.78417e-07)
(-5.12815e-14 -2.6125e-16 5.68758e-07)
(-7.71305e-07 4.43246e-08 5.75841e-07)
(0.00584211 -2.41423e-07 5.78417e-07)
(-5.12834e-14 -2.61252e-16 5.68758e-07)
(-7.71305e-07 4.43246e-08 5.75841e-07)
(0.00584211 -2.41423e-07 5.78417e-07)
(-5.12812e-14 -2.61252e-16 5.68758e-07)
(-7.71305e-07 4.43246e-08 5.75841e-07)
(0.00584211 -2.41423e-07 5.78417e-07)
(-5.12839e-14 -2.61252e-16 5.68758e-07)
(-7.71305e-07 4.43246e-08 5.75841e-07)
(0.00584292 -2.8973e-07 5.78498e-07)
(-5.0867e-14 -1.89567e-16 5.68839e-07)
(-1.35218e-08 8.05472e-10 5.68758e-07)
(-1.6134e-05 -2.71792e-10 5.77036e-07)
(-1.62454e-05 -2.75561e-10 5.77073e-07)
(-1.63584e-05 -2.79409e-10 5.7711e-07)
(-1.6473e-05 -2.83338e-10 5.77148e-07)
(-1.65891e-05 -2.87351e-10 5.77187e-07)
(-1.6707e-05 -2.91449e-10 5.77226e-07)
(-1.68265e-05 -2.95636e-10 5.77266e-07)
(-1.69477e-05 -2.99914e-10 5.77306e-07)
(-1.70707e-05 -3.04285e-10 5.77347e-07)
(-1.71955e-05 -3.08753e-10 5.77388e-07)
(-1.73221e-05 -3.13319e-10 5.7743e-07)
(-1.74506e-05 -3.17988e-10 5.77473e-07)
(-1.75811e-05 -3.22762e-10 5.77516e-07)
(-1.77135e-05 -3.27644e-10 5.7756e-07)
(-1.78479e-05 -3.32638e-10 5.77604e-07)
(-1.79843e-05 -3.37747e-10 5.7765e-07)
(-1.81229e-05 -3.42974e-10 5.77696e-07)
(-1.82636e-05 -3.48324e-10 5.77742e-07)
(-1.84065e-05 -3.538e-10 5.7779e-07)
(-1.85517e-05 -3.59406e-10 5.77838e-07)
(-1.86992e-05 -3.65146e-10 5.77887e-07)
(-0.00103521 3.42901e-05 5.78944e-07)
(-1.61685e-05 8.15755e-10 5.7434e-07)
(-1.62804e-05 8.27071e-10 5.74359e-07)
(-1.63939e-05 8.38624e-10 5.74377e-07)
(-1.6509e-05 8.50421e-10 5.74396e-07)
(-1.66256e-05 8.62469e-10 5.74415e-07)
(-1.6744e-05 8.74775e-10 5.74434e-07)
(-1.6864e-05 8.87345e-10 5.74454e-07)
(-1.69858e-05 9.00189e-10 5.74474e-07)
(-1.71094e-05 9.13314e-10 5.74494e-07)
(-1.72347e-05 9.26728e-10 5.74515e-07)
(-1.73619e-05 9.40439e-10 5.74535e-07)
(-1.7491e-05 9.54457e-10 5.74556e-07)
(-1.76221e-05 9.68792e-10 5.74578e-07)
(-1.77551e-05 9.83451e-10 5.74599e-07)
(-1.78901e-05 9.98445e-10 5.74621e-07)
(-1.80272e-05 1.01379e-09 5.74644e-07)
(-1.81665e-05 1.02948e-09 5.74667e-07)
(-1.83079e-05 1.04555e-09 5.7469e-07)
(-1.84515e-05 1.06199e-09 5.74713e-07)
(-1.85974e-05 1.07882e-09 5.74737e-07)
(-1.87456e-05 1.09606e-09 5.74761e-07)
(1.85101e-05 2.4319e-07 5.75413e-07)
(-1.61676e-05 8.15833e-10 5.74308e-07)
(-1.62795e-05 8.27151e-10 5.74326e-07)
(-1.63929e-05 8.38706e-10 5.74344e-07)
(-1.6508e-05 8.50505e-10 5.74362e-07)
(-1.66247e-05 8.62554e-10 5.74381e-07)
(-1.6743e-05 8.74862e-10 5.744e-07)
(-1.6863e-05 8.87434e-10 5.7442e-07)
(-1.69848e-05 9.0028e-10 5.74439e-07)
(-1.71083e-05 9.13407e-10 5.74459e-07)
(-1.72337e-05 9.26823e-10 5.74479e-07)
(-1.73609e-05 9.40536e-10 5.745e-07)
(-1.749e-05 9.54557e-10 5.74521e-07)
(-1.7621e-05 9.68893e-10 5.74542e-07)
(-1.7754e-05 9.83554e-10 5.74563e-07)
(-1.7889e-05 9.98551e-10 5.74585e-07)
(-1.80261e-05 1.01389e-09 5.74607e-07)
(-1.81653e-05 1.02959e-09 5.7463e-07)
(-1.83067e-05 1.04566e-09 5.74652e-07)
(-1.84503e-05 1.0621e-09 5.74676e-07)
(-1.85961e-05 1.07894e-09 5.74699e-07)
(-1.87443e-05 1.09618e-09 5.74723e-07)
(1.71748e-05 5.86896e-08 5.75427e-07)
(-1.61667e-05 8.15833e-10 5.74275e-07)
(-1.62785e-05 8.2715e-10 5.74293e-07)
(-1.6392e-05 8.38706e-10 5.74311e-07)
(-1.6507e-05 8.50504e-10 5.74329e-07)
(-1.66237e-05 8.62554e-10 5.74348e-07)
(-1.6742e-05 8.74861e-10 5.74367e-07)
(-1.6862e-05 8.87434e-10 5.74386e-07)
(-1.69838e-05 9.0028e-10 5.74405e-07)
(-1.71073e-05 9.13407e-10 5.74425e-07)
(-1.72326e-05 9.26822e-10 5.74445e-07)
(-1.73598e-05 9.40536e-10 5.74465e-07)
(-1.74889e-05 9.54556e-10 5.74486e-07)
(-1.76199e-05 9.68892e-10 5.74506e-07)
(-1.77529e-05 9.83554e-10 5.74528e-07)
(-1.78879e-05 9.98551e-10 5.74549e-07)
(-1.80249e-05 1.01389e-09 5.74571e-07)
(-1.81641e-05 1.02959e-09 5.74593e-07)
(-1.83055e-05 1.04566e-09 5.74616e-07)
(-1.84491e-05 1.0621e-09 5.74638e-07)
(-1.85949e-05 1.07894e-09 5.74662e-07)
(-1.87431e-05 1.09618e-09 5.74685e-07)
(1.7242e-05 6.01514e-08 5.7544e-07)
(-1.61657e-05 8.15832e-10 5.74243e-07)
(-1.62776e-05 8.27151e-10 5.7426e-07)
(-1.6391e-05 8.38705e-10 5.74278e-07)
(-1.65061e-05 8.50504e-10 5.74296e-07)
(-1.66227e-05 8.62554e-10 5.74314e-07)
(-1.6741e-05 8.74861e-10 5.74333e-07)
(-1.6861e-05 8.87434e-10 5.74352e-07)
(-1.69828e-05 9.0028e-10 5.74371e-07)
(-1.71063e-05 9.13406e-10 5.7439e-07)
(-1.72316e-05 9.26822e-10 5.7441e-07)
(-1.73587e-05 9.40536e-10 5.7443e-07)
(-1.74878e-05 9.54556e-10 5.7445e-07)
(-1.76188e-05 9.68892e-10 5.74471e-07)
(-1.77517e-05 9.83553e-10 5.74492e-07)
(-1.78867e-05 9.98551e-10 5.74513e-07)
(-1.80238e-05 1.01389e-09 5.74535e-07)
(-1.8163e-05 1.02959e-09 5.74557e-07)
(-1.83043e-05 1.04566e-09 5.74579e-07)
(-1.84479e-05 1.0621e-09 5.74601e-07)
(-1.85937e-05 1.07894e-09 5.74624e-07)
(-1.87419e-05 1.09618e-09 5.74648e-07)
(1.73109e-05 6.16132e-08 5.75452e-07)
(-1.61648e-05 8.15832e-10 5.7421e-07)
(-1.62767e-05 8.2715e-10 5.74227e-07)
(-1.63901e-05 8.38705e-10 5.74245e-07)
(-1.65051e-05 8.50504e-10 5.74263e-07)
(-1.66217e-05 8.62553e-10 5.74281e-07)
(-1.674e-05 8.74861e-10 5.74299e-07)
(-1.686e-05 8.87433e-10 5.74318e-07)
(-1.69817e-05 9.00279e-10 5.74337e-07)
(-1.71052e-05 9.13406e-10 5.74356e-07)
(-1.72305e-05 9.26822e-10 5.74375e-07)
(-1.73577e-05 9.40535e-10 5.74395e-07)
(-1.74867e-05 9.54556e-10 5.74415e-07)
(-1.76177e-05 9.68892e-10 5.74436e-07)
(-1.77506e-05 9.83553e-10 5.74456e-07)
(-1.78856e-05 9.9855e-10 5.74477e-07)
(-1.80226e-05 1.01389e-09 5.74498e-07)
(-1.81618e-05 1.02959e-09 5.7452e-07)
(-1.83031e-05 1.04566e-09 5.74542e-07)
(-1.84467e-05 1.0621e-09 5.74564e-07)
(-1.85925e-05 1.07894e-09 5.74587e-07)
(-1.87406e-05 1.09618e-09 5.7461e-07)
(1.73814e-05 6.3075e-08 5.75465e-07)
(-1.61639e-05 8.15832e-10 5.74177e-07)
(-1.62757e-05 8.2715e-10 5.74195e-07)
(-1.63891e-05 8.38705e-10 5.74212e-07)
(-1.65041e-05 8.50503e-10 5.7423e-07)
(-1.66208e-05 8.62553e-10 5.74247e-07)
(-1.6739e-05 8.7486e-10 5.74266e-07)
(-1.6859e-05 8.87433e-10 5.74284e-07)
(-1.69807e-05 9.00279e-10 5.74303e-07)
(-1.71042e-05 9.13405e-10 5.74322e-07)
(-1.72295e-05 9.26821e-10 5.74341e-07)
(-1.73566e-05 9.40535e-10 5.7436e-07)
(-1.74856e-05 9.54555e-10 5.7438e-07)
(-1.76166e-05 9.68891e-10 5.744e-07)
(-1.77495e-05 9.83553e-10 5.7442e-07)
(-1.78845e-05 9.9855e-10 5.74441e-07)
(-1.80215e-05 1.01389e-09 5.74462e-07)
(-1.81606e-05 1.02959e-09 5.74483e-07)
(-1.83019e-05 1.04566e-09 5.74505e-07)
(-1.84455e-05 1.0621e-09 5.74527e-07)
(-1.85912e-05 1.07894e-09 5.74549e-07)
(-1.87394e-05 1.09618e-09 5.74572e-07)
(1.74536e-05 6.45368e-08 5.75477e-07)
(-1.6163e-05 8.15832e-10 5.74145e-07)
(-1.62748e-05 8.27149e-10 5.74162e-07)
(-1.63882e-05 8.38704e-10 5.74179e-07)
(-1.65032e-05 8.50503e-10 5.74196e-07)
(-1.66198e-05 8.62553e-10 5.74214e-07)
(-1.67381e-05 8.7486e-10 5.74232e-07)
(-1.6858e-05 8.87433e-10 5.7425e-07)
(-1.69797e-05 9.00279e-10 5.74268e-07)
(-1.71032e-05 9.13405e-10 5.74287e-07)
(-1.72284e-05 9.26821e-10 5.74306e-07)
(-1.73555e-05 9.40535e-10 5.74325e-07)
(-1.74846e-05 9.54555e-10 5.74345e-07)
(-1.76155e-05 9.68891e-10 5.74365e-07)
(-1.77484e-05 9.83552e-10 5.74385e-07)
(-1.78833e-05 9.98549e-10 5.74405e-07)
(-1.80203e-05 1.01389e-09 5.74426e-07)
(-1.81595e-05 1.02959e-09 5.74447e-07)
(-1.83007e-05 1.04566e-09 5.74468e-07)
(-1.84443e-05 1.0621e-09 5.7449e-07)
(-1.859e-05 1.07894e-09 5.74512e-07)
(-1.87381e-05 1.09618e-09 5.74534e-07)
(1.75275e-05 6.59986e-08 5.7549e-07)
(-1.6162e-05 8.15831e-10 5.74112e-07)
(-1.62739e-05 8.27149e-10 5.74129e-07)
(-1.63872e-05 8.38704e-10 5.74146e-07)
(-1.65022e-05 8.50503e-10 5.74163e-07)
(-1.66188e-05 8.62553e-10 5.74181e-07)
(-1.6737e-05 8.7486e-10 5.74198e-07)
(-1.6857e-05 8.87433e-10 5.74216e-07)
(-1.69787e-05 9.00278e-10 5.74234e-07)
(-1.71021e-05 9.13405e-10 5.74253e-07)
(-1.72274e-05 9.26821e-10 5.74271e-07)
(-1.73545e-05 9.40534e-10 5.7429e-07)
(-1.74835e-05 9.54554e-10 5.7431e-07)
(-1.76144e-05 9.68891e-10 5.74329e-07)
(-1.77473e-05 9.83552e-10 5.74349e-07)
(-1.78822e-05 9.98549e-10 5.74369e-07)
(-1.80192e-05 1.01389e-09 5.7439e-07)
(-1.81583e-05 1.02959e-09 5.7441e-07)
(-1.82996e-05 1.04566e-09 5.74431e-07)
(-1.8443e-05 1.0621e-09 5.74453e-07)
(-1.85888e-05 1.07894e-09 5.74475e-07)
(-1.87369e-05 1.09618e-09 5.74497e-07)
(1.7603e-05 6.74604e-08 5.75502e-07)
(-1.61611e-05 8.16517e-10 5.7408e-07)
(-1.62729e-05 8.27845e-10 5.74096e-07)
(-1.63863e-05 8.39409e-10 5.74113e-07)
(-1.65012e-05 8.51218e-10 5.7413e-07)
(-1.66178e-05 8.63278e-10 5.74147e-07)
(-1.67361e-05 8.75596e-10 5.74164e-07)
(-1.6856e-05 8.88179e-10 5.74182e-07)
(-1.69776e-05 9.01035e-10 5.742e-07)
(-1.71011e-05 9.14173e-10 5.74218e-07)
(-1.72263e-05 9.276e-10 5.74236e-07)
(-1.73534e-05 9.41325e-10 5.74255e-07)
(-1.74824e-05 9.55357e-10 5.74274e-07)
(-1.76133e-05 9.69705e-10 5.74293e-07)
(-1.77462e-05 9.84379e-10 5.74313e-07)
(-1.78811e-05 9.99389e-10 5.74333e-07)
(-1.8018e-05 1.01474e-09 5.74353e-07)
(-1.81571e-05 1.03046e-09 5.74373e-07)
(-1.82984e-05 1.04654e-09 5.74394e-07)
(-1.84418e-05 1.06299e-09 5.74415e-07)
(-1.85876e-05 1.07985e-09 5.74437e-07)
(-1.87356e-05 1.0971e-09 5.74458e-07)
(1.76765e-05 6.86891e-08 5.75513e-07)
(-1.616e-05 8.25455e-10 5.74042e-07)
(-1.62718e-05 8.36906e-10 5.74058e-07)
(-1.63852e-05 8.48597e-10 5.74074e-07)
(-1.65001e-05 8.60536e-10 5.74091e-07)
(-1.66167e-05 8.72727e-10 5.74108e-07)
(-1.67349e-05 8.8518e-10 5.74125e-07)
(-1.68548e-05 8.97901e-10 5.74142e-07)
(-1.69765e-05 9.10898e-10 5.7416e-07)
(-1.70999e-05 9.24179e-10 5.74178e-07)
(-1.72251e-05 9.37753e-10 5.74196e-07)
(-1.73522e-05 9.51629e-10 5.74214e-07)
(-1.74811e-05 9.65814e-10 5.74233e-07)
(-1.7612e-05 9.80319e-10 5.74252e-07)
(-1.77449e-05 9.95154e-10 5.74271e-07)
(-1.78798e-05 1.01033e-09 5.74291e-07)
(-1.80167e-05 1.02585e-09 5.74311e-07)
(-1.81558e-05 1.04173e-09 5.74331e-07)
(-1.8297e-05 1.05799e-09 5.74351e-07)
(-1.84404e-05 1.07463e-09 5.74372e-07)
(-1.85861e-05 1.09166e-09 5.74393e-07)
(-1.87342e-05 1.10911e-09 5.74414e-07)
(1.77066e-05 6.7087e-08 5.75505e-07)
(-1.6159e-05 8.34409e-10 5.74004e-07)
(-1.62707e-05 8.45985e-10 5.7402e-07)
(-1.63841e-05 8.57803e-10 5.74036e-07)
(-1.6499e-05 8.6987e-10 5.74052e-07)
(-1.66155e-05 8.82194e-10 5.74069e-07)
(-1.67337e-05 8.94781e-10 5.74086e-07)
(-1.68536e-05 9.07641e-10 5.74103e-07)
(-1.69753e-05 9.20778e-10 5.7412e-07)
(-1.70987e-05 9.34204e-10 5.74138e-07)
(-1.72239e-05 9.47925e-10 5.74156e-07)
(-1.73509e-05 9.61951e-10 5.74174e-07)
(-1.74799e-05 9.76291e-10 5.74192e-07)
(-1.76107e-05 9.90953e-10 5.74211e-07)
(-1.77436e-05 1.00595e-09 5.7423e-07)
(-1.78784e-05 1.02129e-09 5.74249e-07)
(-1.80154e-05 1.03698e-09 5.74268e-07)
(-1.81544e-05 1.05303e-09 5.74288e-07)
(-1.82956e-05 1.06947e-09 5.74308e-07)
(-1.8439e-05 1.08629e-09 5.74329e-07)
(-1.85847e-05 1.10351e-09 5.74349e-07)
(-1.87327e-05 1.12114e-09 5.74371e-07)
(1.77368e-05 6.53867e-08 5.75461e-07)
(-1.61579e-05 8.43379e-10 5.73966e-07)
(-1.62697e-05 8.55079e-10 5.73981e-07)
(-1.6383e-05 8.67024e-10 5.73997e-07)
(-1.64979e-05 8.79221e-10 5.74013e-07)
(-1.66144e-05 8.91677e-10 5.7403e-07)
(-1.67326e-05 9.044e-10 5.74046e-07)
(-1.68525e-05 9.17397e-10 5.74063e-07)
(-1.69741e-05 9.30676e-10 5.7408e-07)
(-1.70975e-05 9.44246e-10 5.74098e-07)
(-1.72227e-05 9.58115e-10 5.74115e-07)
(-1.73497e-05 9.72291e-10 5.74133e-07)
(-1.74786e-05 9.86785e-10 5.74151e-07)
(-1.76095e-05 1.00161e-09 5.74169e-07)
(-1.77423e-05 1.01676e-09 5.74188e-07)
(-1.78771e-05 1.03226e-09 5.74207e-07)
(-1.8014e-05 1.04812e-09 5.74226e-07)
(-1.81531e-05 1.06435e-09 5.74246e-07)
(-1.82942e-05 1.08096e-09 5.74265e-07)
(-1.84376e-05 1.09796e-09 5.74285e-07)
(-1.85833e-05 1.11537e-09 5.74306e-07)
(-1.87313e-05 1.13319e-09 5.74327e-07)
(1.77677e-05 6.36332e-08 5.75418e-07)
(-1.61568e-05 8.52362e-10 5.73928e-07)
(-1.62686e-05 8.64187e-10 5.73943e-07)
(-1.63819e-05 8.76259e-10 5.73959e-07)
(-1.64968e-05 8.88586e-10 5.73975e-07)
(-1.66133e-05 9.01175e-10 5.73991e-07)
(-1.67314e-05 9.14033e-10 5.74007e-07)
(-1.68513e-05 9.27169e-10 5.74024e-07)
(-1.69729e-05 9.4059e-10 5.7404e-07)
(-1.70963e-05 9.54304e-10 5.74057e-07)
(-1.72214e-05 9.6832e-10 5.74075e-07)
(-1.73484e-05 9.82648e-10 5.74092e-07)
(-1.74773e-05 9.97296e-10 5.7411e-07)
(-1.76082e-05 1.01227e-09 5.74128e-07)
(-1.7741e-05 1.02759e-09 5.74146e-07)
(-1.78758e-05 1.04326e-09 5.74165e-07)
(-1.80127e-05 1.05929e-09 5.74184e-07)
(-1.81517e-05 1.07569e-09 5.74203e-07)
(-1.82929e-05 1.09248e-09 5.74222e-07)
(-1.84362e-05 1.10966e-09 5.74242e-07)
(-1.85819e-05 1.12725e-09 5.74262e-07)
(-1.87298e-05 1.14526e-09 5.74283e-07)
(1.77993e-05 6.18268e-08 5.75375e-07)
(-1.61557e-05 8.61359e-10 5.7389e-07)
(-1.62675e-05 8.73308e-10 5.73905e-07)
(-1.63808e-05 8.85508e-10 5.73921e-07)
(-1.64956e-05 8.97965e-10 5.73936e-07)
(-1.66121e-05 9.10687e-10 5.73952e-07)
(-1.67303e-05 9.23681e-10 5.73968e-07)
(-1.68501e-05 9.36955e-10 5.73984e-07)
(-1.69717e-05 9.50518e-10 5.74001e-07)
(-1.70951e-05 9.64377e-10 5.74017e-07)
(-1.72202e-05 9.78541e-10 5.74034e-07)
(-1.73472e-05 9.9302e-10 5.74051e-07)
(-1.74761e-05 1.00782e-09 5.74069e-07)
(-1.76069e-05 1.02296e-09 5.74087e-07)
(-1.77397e-05 1.03844e-09 5.74105e-07)
(-1.78745e-05 1.05427e-09 5.74123e-07)
(-1.80114e-05 1.07047e-09 5.74142e-07)
(-1.81503e-05 1.08704e-09 5.7416e-07)
(-1.82915e-05 1.10401e-09 5.74179e-07)
(-1.84348e-05 1.12137e-09 5.74199e-07)
(-1.85805e-05 1.13914e-09 5.74219e-07)
(-1.87284e-05 1.15735e-09 5.74239e-07)
(1.78317e-05 5.99677e-08 5.75332e-07)
(-1.61547e-05 8.70368e-10 5.73852e-07)
(-1.62664e-05 8.82442e-10 5.73867e-07)
(-1.63796e-05 8.94769e-10 5.73882e-07)
(-1.64945e-05 9.07357e-10 5.73897e-07)
(-1.6611e-05 9.20211e-10 5.73913e-07)
(-1.67291e-05 9.33341e-10 5.73929e-07)
(-1.6849e-05 9.46754e-10 5.73945e-07)
(-1.69705e-05 9.60459e-10 5.73961e-07)
(-1.70938e-05 9.74462e-10 5.73977e-07)
(-1.7219e-05 9.88775e-10 5.73994e-07)
(-1.7346e-05 1.0034e-09 5.74011e-07)
(-1.74748e-05 1.01836e-09 5.74028e-07)
(-1.76056e-05 1.03366e-09 5.74045e-07)
(-1.77384e-05 1.0493e-09 5.74063e-07)
(-1.78732e-05 1.0653e-09 5.74081e-07)
(-1.801e-05 1.08166e-09 5.74099e-07)
(-1.8149e-05 1.09841e-09 5.74118e-07)
(-1.82901e-05 1.11555e-09 5.74137e-07)
(-1.84334e-05 1.1331e-09 5.74156e-07)
(-1.8579e-05 1.15106e-09 5.74175e-07)
(-1.8727e-05 1.16945e-09 5.74195e-07)
(1.78648e-05 5.80562e-08 5.75288e-07)
(-1.61536e-05 8.79387e-10 5.73814e-07)
(-1.62653e-05 8.91586e-10 5.73829e-07)
(-1.63786e-05 9.04041e-10 5.73844e-07)
(-1.64934e-05 9.16759e-10 5.73859e-07)
(-1.66099e-05 9.29747e-10 5.73874e-07)
(-1.6728e-05 9.43013e-10 5.73889e-07)
(-1.68478e-05 9.56565e-10 5.73905e-07)
(-1.69693e-05 9.70411e-10 5.73921e-07)
(-1.70927e-05 9.8456e-10 5.73937e-07)
(-1.72178e-05 9.99021e-10 5.73953e-07)
(-1.73447e-05 1.0138e-09 5.7397e-07)
(-1.74736e-05 1.02891e-09 5.73987e-07)
(-1.76043e-05 1.04437e-09 5.74004e-07)
(-1.77371e-05 1.06017e-09 5.74021e-07)
(-1.78719e-05 1.07634e-09 5.74039e-07)
(-1.80087e-05 1.09287e-09 5.74057e-07)
(-1.81476e-05 1.10979e-09 5.74075e-07)
(-1.82887e-05 1.12711e-09 5.74094e-07)
(-1.8432e-05 1.14484e-09 5.74112e-07)
(-1.85776e-05 1.16299e-09 5.74131e-07)
(-1.87255e-05 1.18157e-09 5.74151e-07)
(1.78986e-05 5.60926e-08 5.75245e-07)
(-1.61525e-05 8.88416e-10 5.73776e-07)
(-1.62642e-05 9.0074e-10 5.73791e-07)
(-1.63774e-05 9.13323e-10 5.73805e-07)
(-1.64923e-05 9.26171e-10 5.7382e-07)
(-1.66087e-05 9.39293e-10 5.73835e-07)
(-1.67268e-05 9.52695e-10 5.7385e-07)
(-1.68466e-05 9.66386e-10 5.73865e-07)
(-1.69682e-05 9.80374e-10 5.73881e-07)
(-1.70914e-05 9.94668e-10 5.73897e-07)
(-1.72165e-05 1.00928e-09 5.73913e-07)
(-1.73435e-05 1.02421e-09 5.73929e-07)
(-1.74723e-05 1.03948e-09 5.73946e-07)
(-1.76031e-05 1.05509e-09 5.73963e-07)
(-1.77358e-05 1.07106e-09 5.7398e-07)
(-1.78705e-05 1.08739e-09 5.73997e-07)
(-1.80074e-05 1.10409e-09 5.74015e-07)
(-1.81463e-05 1.12119e-09 5.74033e-07)
(-1.82873e-05 1.13868e-09 5.74051e-07)
(-1.84306e-05 1.15659e-09 5.74069e-07)
(-1.85762e-05 1.17493e-09 5.74088e-07)
(-1.87241e-05 1.1937e-09 5.74107e-07)
(1.79332e-05 5.40771e-08 5.75202e-07)
(-1.61514e-05 8.97453e-10 5.73738e-07)
(-1.62631e-05 9.09903e-10 5.73752e-07)
(-1.63763e-05 9.22614e-10 5.73767e-07)
(-1.64911e-05 9.35593e-10 5.73781e-07)
(-1.66076e-05 9.48847e-10 5.73796e-07)
(-1.67257e-05 9.62386e-10 5.73811e-07)
(-1.68454e-05 9.76216e-10 5.73826e-07)
(-1.6967e-05 9.90347e-10 5.73841e-07)
(-1.70902e-05 1.00479e-09 5.73857e-07)
(-1.72153e-05 1.01954e-09 5.73873e-07)
(-1.73422e-05 1.03463e-09 5.73889e-07)
(-1.74711e-05 1.05005e-09 5.73905e-07)
(-1.76018e-05 1.06582e-09 5.73921e-07)
(-1.77345e-05 1.08195e-09 5.73938e-07)
(-1.78692e-05 1.09845e-09 5.73955e-07)
(-1.8006e-05 1.11532e-09 5.73972e-07)
(-1.81449e-05 1.13259e-09 5.7399e-07)
(-1.8286e-05 1.15027e-09 5.74008e-07)
(-1.84292e-05 1.16836e-09 5.74026e-07)
(-1.85748e-05 1.18688e-09 5.74044e-07)
(-1.87226e-05 1.20584e-09 5.74063e-07)
(1.79685e-05 5.20101e-08 5.75158e-07)
(-1.61504e-05 9.06497e-10 5.737e-07)
(-1.6262e-05 9.19073e-10 5.73714e-07)
(-1.63752e-05 9.31911e-10 5.73728e-07)
(-1.649e-05 9.45021e-10 5.73743e-07)
(-1.66064e-05 9.5841e-10 5.73757e-07)
(-1.67245e-05 9.72084e-10 5.73772e-07)
(-1.68443e-05 9.86054e-10 5.73786e-07)
(-1.69658e-05 1.00033e-09 5.73801e-07)
(-1.7089e-05 1.01491e-09 5.73817e-07)
(-1.72141e-05 1.02982e-09 5.73832e-07)
(-1.7341e-05 1.04506e-09 5.73848e-07)
(-1.74698e-05 1.06063e-09 5.73864e-07)
(-1.76005e-05 1.07656e-09 5.7388e-07)
(-1.77332e-05 1.09285e-09 5.73896e-07)
(-1.78679e-05 1.10952e-09 5.73913e-07)
(-1.80047e-05 1.12656e-09 5.7393e-07)
(-1.81435e-05 1.14401e-09 5.73947e-07)
(-1.82846e-05 1.16186e-09 5.73965e-07)
(-1.84278e-05 1.18013e-09 5.73982e-07)
(-1.85733e-05 1.19884e-09 5.74001e-07)
(-1.87212e-05 1.21799e-09 5.74019e-07)
(1.80045e-05 4.98919e-08 5.75115e-07)
(-1.61493e-05 9.15548e-10 5.73663e-07)
(-1.62609e-05 9.28248e-10 5.73676e-07)
(-1.63741e-05 9.41215e-10 5.7369e-07)
(-1.64889e-05 9.54456e-10 5.73704e-07)
(-1.66053e-05 9.67978e-10 5.73718e-07)
(-1.67234e-05 9.8179e-10 5.73732e-07)
(-1.68431e-05 9.95898e-10 5.73747e-07)
(-1.69646e-05 1.01031e-09 5.73762e-07)
(-1.70878e-05 1.02504e-09 5.73777e-07)
(-1.72129e-05 1.0401e-09 5.73792e-07)
(-1.73398e-05 1.05549e-09 5.73807e-07)
(-1.74685e-05 1.07122e-09 5.73823e-07)
(-1.75992e-05 1.08731e-09 5.73839e-07)
(-1.77319e-05 1.10376e-09 5.73855e-07)
(-1.78666e-05 1.12059e-09 5.73871e-07)
(-1.80033e-05 1.13781e-09 5.73888e-07)
(-1.81422e-05 1.15543e-09 5.73905e-07)
(-1.82832e-05 1.17346e-09 5.73922e-07)
(-1.84264e-05 1.19191e-09 5.73939e-07)
(-1.85719e-05 1.21081e-09 5.73957e-07)
(-1.87197e-05 1.23015e-09 5.73975e-07)
(1.80412e-05 4.77229e-08 5.75071e-07)
(-1.61482e-05 9.24603e-10 5.73625e-07)
(-1.62598e-05 9.37429e-10 5.73638e-07)
(-1.6373e-05 9.50524e-10 5.73651e-07)
(-1.64878e-05 9.63896e-10 5.73665e-07)
(-1.66042e-05 9.77551e-10 5.73679e-07)
(-1.67222e-05 9.91499e-10 5.73693e-07)
(-1.68419e-05 1.00575e-09 5.73707e-07)
(-1.69634e-05 1.02031e-09 5.73722e-07)
(-1.70866e-05 1.03518e-09 5.73736e-07)
(-1.72116e-05 1.05039e-09 5.73751e-07)
(-1.73385e-05 1.06593e-09 5.73766e-07)
(-1.74673e-05 1.08182e-09 5.73782e-07)
(-1.7598e-05 1.09806e-09 5.73797e-07)
(-1.77306e-05 1.11468e-09 5.73813e-07)
(-1.78653e-05 1.13168e-09 5.73829e-07)
(-1.8002e-05 1.14906e-09 5.73845e-07)
(-1.81408e-05 1.16685e-09 5.73862e-07)
(-1.82818e-05 1.18506e-09 5.73879e-07)
(-1.8425e-05 1.2037e-09 5.73896e-07)
(-1.85705e-05 1.22278e-09 5.73913e-07)
(-1.87183e-05 1.24232e-09 5.73931e-07)
(1.80787e-05 4.55033e-08 5.75028e-07)
(-1.61471e-05 9.33661e-10 5.73587e-07)
(-1.62587e-05 9.46613e-10 5.736e-07)
(-1.63719e-05 9.59837e-10 5.73613e-07)
(-1.64866e-05 9.73339e-10 5.73626e-07)
(-1.6603e-05 9.87129e-10 5.7364e-07)
(-1.6721e-05 1.00121e-09 5.73654e-07)
(-1.68408e-05 1.0156e-09 5.73668e-07)
(-1.69622e-05 1.0303e-09 5.73682e-07)
(-1.70854e-05 1.04532e-09 5.73696e-07)
(-1.72104e-05 1.06068e-09 5.73711e-07)
(-1.73373e-05 1.07637e-09 5.73726e-07)
(-1.7466e-05 1.09242e-09 5.73741e-07)
(-1.75967e-05 1.10882e-09 5.73756e-07)
(-1.77293e-05 1.1256e-09 5.73771e-07)
(-1.78639e-05 1.14276e-09 5.73787e-07)
(-1.80007e-05 1.16032e-09 5.73803e-07)
(-1.81395e-05 1.17829e-09 5.73819e-07)
(-1.82804e-05 1.19667e-09 5.73836e-07)
(-1.84236e-05 1.21549e-09 5.73853e-07)
(-1.85691e-05 1.23476e-09 5.7387e-07)
(-1.87168e-05 1.25449e-09 5.73887e-07)
(1.81168e-05 4.32336e-08 5.74984e-07)
(-1.6146e-05 9.42722e-10 5.73549e-07)
(-1.62577e-05 9.558e-10 5.73562e-07)
(-1.63708e-05 9.69151e-10 5.73574e-07)
(-1.64855e-05 9.82785e-10 5.73588e-07)
(-1.66019e-05 9.96708e-10 5.73601e-07)
(-1.67199e-05 1.01093e-09 5.73614e-07)
(-1.68396e-05 1.02546e-09 5.73628e-07)
(-1.6961e-05 1.0403e-09 5.73642e-07)
(-1.70842e-05 1.05547e-09 5.73656e-07)
(-1.72092e-05 1.07097e-09 5.7367e-07)
(-1.7336e-05 1.08682e-09 5.73685e-07)
(-1.74647e-05 1.10302e-09 5.737e-07)
(-1.75954e-05 1.11958e-09 5.73715e-07)
(-1.7728e-05 1.13652e-09 5.7373e-07)
(-1.78626e-05 1.15385e-09 5.73745e-07)
(-1.79993e-05 1.17158e-09 5.73761e-07)
(-1.81381e-05 1.18972e-09 5.73777e-07)
(-1.82791e-05 1.20828e-09 5.73793e-07)
(-1.84222e-05 1.22729e-09 5.73809e-07)
(-1.85676e-05 1.24674e-09 5.73826e-07)
(-1.87154e-05 1.26666e-09 5.73843e-07)
(1.81557e-05 4.09142e-08 5.74941e-07)
(-1.61473e-05 1.08783e-09 5.73592e-07)
(-1.62589e-05 1.10292e-09 5.73605e-07)
(-1.6372e-05 1.11833e-09 5.73619e-07)
(-1.64868e-05 1.13406e-09 5.73632e-07)
(-1.66032e-05 1.15012e-09 5.73646e-07)
(-1.67212e-05 1.16653e-09 5.73659e-07)
(-1.68409e-05 1.1833e-09 5.73673e-07)
(-1.69623e-05 1.20043e-09 5.73688e-07)
(-1.70856e-05 1.21793e-09 5.73702e-07)
(-1.72106e-05 1.23582e-09 5.73717e-07)
(-1.73374e-05 1.2541e-09 5.73732e-07)
(-1.74662e-05 1.2728e-09 5.73747e-07)
(-1.75968e-05 1.29191e-09 5.73762e-07)
(-1.77295e-05 1.31146e-09 5.73778e-07)
(-1.78641e-05 1.33146e-09 5.73793e-07)
(-1.80008e-05 1.35192e-09 5.73809e-07)
(-1.81396e-05 1.37285e-09 5.73826e-07)
(-1.82806e-05 1.39427e-09 5.73842e-07)
(-1.84238e-05 1.4162e-09 5.73859e-07)
(-1.85692e-05 1.43865e-09 5.73876e-07)
(-1.8717e-05 1.46164e-09 5.73893e-07)
(1.89154e-05 -2.14343e-09 5.75177e-07)
)
;

boundaryField
{
    inlet
    {
        type            calculated;
        value           uniform (0 0 0);
    }
    outlet2
    {
        type            calculated;
        value           uniform (0 0 0);
    }
    outlet1
    {
        type            calculated;
        value           uniform (0 0 0);
    }
    wall
    {
        type            calculated;
        value           uniform (0 0 0);
    }
    symmetryBottom
    {
        type            symmetry;
    }
    symmetryZ0
    {
        type            symmetry;
    }
    symmetryZ05
    {
        type            symmetry;
    }
}


// ************************************************************************* //
