/*--------------------------------*- C++ -*----------------------------------*\
| =========                 |                                                 |
| \\      /  F ield         | OpenFOAM: The Open Source CFD Toolbox           |
|  \\    /   O peration     | Version:  2412                                  |
|   \\  /    A nd           | Website:  www.openfoam.com                      |
|    \\/     M anipulation  |                                                 |
\*---------------------------------------------------------------------------*/
FoamFile
{
    version     2.0;
    format      ascii;
    arch        "LSB;label=32;scalar=64";
    class       volVectorField;
    location    "1.66832e-07";
    object      rhoU_dof0;
}
// * * * * * * * * * * * * * * * * * * * * * * * * * * * * * * * * * * * * * //

dimensions      [0 0 0 0 0 0 0];

internalField   nonuniform List<vector> 
625
(
(0.0741247 -3.96663e-09 -1.09465e-08)
(0.072151 -2.00785e-08 -1.2878e-08)
(0.072151 -2.01596e-08 8.05196e-11)
(0.0741247 -9.72869e-06 -1.09465e-08)
(0.072151 -9.64821e-06 -1.2878e-08)
(0.0721511 -9.64829e-06 -8.07696e-11)
(0.0741247 -9.726e-06 -1.09465e-08)
(0.072151 -9.64552e-06 -1.2878e-08)
(0.072151 -9.6456e-06 -8.05551e-11)
(0.0741247 -9.726e-06 -1.09465e-08)
(0.072151 -9.64552e-06 -1.2878e-08)
(0.072151 -9.6456e-06 -8.05551e-11)
(0.0741247 -9.726e-06 -1.09465e-08)
(0.072151 -9.64552e-06 -1.2878e-08)
(0.072151 -9.6456e-06 -8.05551e-11)
(0.0741247 -9.726e-06 -1.09465e-08)
(0.072151 -9.64552e-06 -1.2878e-08)
(0.072151 -9.6456e-06 -8.05551e-11)
(0.0741247 -9.726e-06 -1.09465e-08)
(0.072151 -9.64552e-06 -1.2878e-08)
(0.072151 -9.6456e-06 -8.05551e-11)
(0.0741247 -9.726e-06 -1.09465e-08)
(0.072151 -9.64552e-06 -1.2878e-08)
(0.072151 -9.6456e-06 -8.05551e-11)
(0.0741247 -9.726e-06 -1.09465e-08)
(0.072151 -9.64552e-06 -1.2878e-08)
(0.072151 -9.6456e-06 -8.05551e-11)
(0.0741247 -9.726e-06 -1.09465e-08)
(0.072151 -9.64552e-06 -1.2878e-08)
(0.072151 -9.6456e-06 -8.05551e-11)
(0.0741247 -9.726e-06 -1.09465e-08)
(0.072151 -9.64552e-06 -1.2878e-08)
(0.072151 -9.6456e-06 -8.05551e-11)
(0.0741247 -9.726e-06 -1.09465e-08)
(0.072151 -9.64552e-06 -1.2878e-08)
(0.072151 -9.6456e-06 -8.05551e-11)
(0.0741247 -9.726e-06 -1.09465e-08)
(0.072151 -9.64552e-06 -1.2878e-08)
(0.072151 -9.6456e-06 -8.05551e-11)
(0.0741247 -9.726e-06 -1.09465e-08)
(0.072151 -9.64552e-06 -1.2878e-08)
(0.072151 -9.6456e-06 -8.05551e-11)
(0.0741247 -9.726e-06 -1.09465e-08)
(0.072151 -9.64552e-06 -1.2878e-08)
(0.072151 -9.6456e-06 -8.05551e-11)
(0.0741247 -9.726e-06 -1.09465e-08)
(0.072151 -9.64552e-06 -1.2878e-08)
(0.072151 -9.6456e-06 -8.05551e-11)
(0.0741247 -9.726e-06 -1.09465e-08)
(0.072151 -9.64552e-06 -1.2878e-08)
(0.072151 -9.6456e-06 -8.05551e-11)
(0.0741247 -9.726e-06 -1.09465e-08)
(0.072151 -9.64552e-06 -1.2878e-08)
(0.072151 -9.6456e-06 -8.05551e-11)
(0.0741247 -9.726e-06 -1.09465e-08)
(0.072151 -9.64552e-06 -1.2878e-08)
(0.072151 -9.6456e-06 -8.05551e-11)
(0.0741247 -9.726e-06 -1.09465e-08)
(0.072151 -9.64552e-06 -1.2878e-08)
(0.072151 -9.6456e-06 -8.05551e-11)
(0.0741247 -9.726e-06 -1.09465e-08)
(0.072151 -9.64552e-06 -1.2878e-08)
(0.072151 -9.6456e-06 -8.05551e-11)
(0.0741247 -9.726e-06 -1.09465e-08)
(0.072151 -9.64552e-06 -1.2878e-08)
(0.072151 -9.6456e-06 -8.05551e-11)
(0.0741247 -9.726e-06 -1.09465e-08)
(0.072151 -9.64552e-06 -1.2878e-08)
(0.072151 -9.6456e-06 -8.05551e-11)
(0.0741247 -9.726e-06 -1.09465e-08)
(0.072151 -9.64552e-06 -1.2878e-08)
(0.072151 -9.6456e-06 -8.05551e-11)
(0.0741247 -9.72725e-06 -1.09465e-08)
(0.0721508 -9.63066e-06 -1.2878e-08)
(0.0721508 -9.63074e-06 -1.29583e-08)
(0.0724701 7.13368e-08 -1.29821e-08)
(0.0724698 7.25071e-08 -1.29828e-08)
(0.0724696 7.37031e-08 -1.29836e-08)
(0.0724693 7.49256e-08 -1.29843e-08)
(0.072469 7.61754e-08 -1.29851e-08)
(0.0724687 7.74533e-08 -1.29858e-08)
(0.0724684 7.87601e-08 -1.29866e-08)
(0.0724681 8.00967e-08 -1.29874e-08)
(0.0724678 8.14639e-08 -1.29882e-08)
(0.0724675 8.28627e-08 -1.2989e-08)
(0.0724672 8.42939e-08 -1.29898e-08)
(0.0724668 8.57587e-08 -1.29907e-08)
(0.0724665 8.72581e-08 -1.29915e-08)
(0.0724662 8.8793e-08 -1.29924e-08)
(0.0724659 9.03647e-08 -1.29932e-08)
(0.0724655 9.19742e-08 -1.29941e-08)
(0.0724652 9.36228e-08 -1.2995e-08)
(0.0724648 9.53117e-08 -1.29959e-08)
(0.0724645 9.70422e-08 -1.29969e-08)
(0.0724641 9.88157e-08 -1.29978e-08)
(0.0724637 1.00634e-07 -1.29988e-08)
(0.0724763 1.00492e-07 -3.9305e-10)
(0.0727621 -9.70925e-06 -1.29789e-08)
(0.0727639 -9.7761e-06 -1.29796e-08)
(0.0727657 -9.84388e-06 -1.29803e-08)
(0.0727674 -9.9126e-06 -1.2981e-08)
(0.0727693 -9.98229e-06 -1.29817e-08)
(0.0727711 -1.0053e-05 -1.29825e-08)
(0.072773 -1.01247e-05 -1.29832e-08)
(0.0727749 -1.01974e-05 -1.2984e-08)
(0.0727768 -1.02711e-05 -1.29847e-08)
(0.0727787 -1.0346e-05 -1.29855e-08)
(0.0727807 -1.04219e-05 -1.29863e-08)
(0.0727827 -1.0499e-05 -1.29871e-08)
(0.0727848 -1.05772e-05 -1.29879e-08)
(0.0727868 -1.06566e-05 -1.29888e-08)
(0.0727889 -1.07372e-05 -1.29896e-08)
(0.0727911 -1.0819e-05 -1.29905e-08)
(0.0727932 -1.09021e-05 -1.29913e-08)
(0.0727954 -1.09864e-05 -1.29922e-08)
(0.0727977 -1.10721e-05 -1.29931e-08)
(0.0728 -1.11591e-05 -1.2994e-08)
(0.0728023 -1.12475e-05 -1.2995e-08)
(0.0728149 -1.12485e-05 -3.00148e-10)
(0.0727509 -9.75503e-06 -1.29789e-08)
(0.0727525 -9.82251e-06 -1.29796e-08)
(0.0727542 -9.89094e-06 -1.29803e-08)
(0.0727559 -9.96033e-06 -1.2981e-08)
(0.0727577 -1.00307e-05 -1.29817e-08)
(0.0727594 -1.01021e-05 -1.29825e-08)
(0.0727612 -1.01745e-05 -1.29832e-08)
(0.072763 -1.02479e-05 -1.2984e-08)
(0.0727648 -1.03224e-05 -1.29848e-08)
(0.0727667 -1.0398e-05 -1.29855e-08)
(0.0727686 -1.04747e-05 -1.29863e-08)
(0.0727705 -1.05525e-05 -1.29871e-08)
(0.0727725 -1.06316e-05 -1.2988e-08)
(0.0727744 -1.07118e-05 -1.29888e-08)
(0.0727764 -1.07932e-05 -1.29896e-08)
(0.0727785 -1.08759e-05 -1.29905e-08)
(0.0727805 -1.09598e-05 -1.29914e-08)
(0.0727826 -1.10451e-05 -1.29922e-08)
(0.0727848 -1.11317e-05 -1.29931e-08)
(0.0727869 -1.12196e-05 -1.29941e-08)
(0.0727891 -1.1309e-05 -1.2995e-08)
(0.0728018 -1.131e-05 -2.87221e-10)
(0.0727399 -9.75468e-06 -1.29789e-08)
(0.0727415 -9.82216e-06 -1.29796e-08)
(0.0727431 -9.89058e-06 -1.29803e-08)
(0.0727448 -9.95996e-06 -1.2981e-08)
(0.0727464 -1.00303e-05 -1.29817e-08)
(0.0727481 -1.01017e-05 -1.29825e-08)
(0.0727498 -1.01741e-05 -1.29832e-08)
(0.0727515 -1.02475e-05 -1.2984e-08)
(0.0727533 -1.0322e-05 -1.29848e-08)
(0.0727551 -1.03976e-05 -1.29856e-08)
(0.0727569 -1.04743e-05 -1.29863e-08)
(0.0727587 -1.05521e-05 -1.29872e-08)
(0.0727605 -1.06311e-05 -1.2988e-08)
(0.0727624 -1.07113e-05 -1.29888e-08)
(0.0727643 -1.07928e-05 -1.29896e-08)
(0.0727663 -1.08754e-05 -1.29905e-08)
(0.0727683 -1.09594e-05 -1.29914e-08)
(0.0727703 -1.10446e-05 -1.29923e-08)
(0.0727723 -1.11312e-05 -1.29931e-08)
(0.0727744 -1.12192e-05 -1.29941e-08)
(0.0727765 -1.13085e-05 -1.2995e-08)
(0.0727891 -1.13095e-05 -2.74746e-10)
(0.072729 -9.75432e-06 -1.29789e-08)
(0.0727305 -9.8218e-06 -1.29796e-08)
(0.0727321 -9.89022e-06 -1.29803e-08)
(0.0727336 -9.95959e-06 -1.2981e-08)
(0.0727352 -1.00299e-05 -1.29817e-08)
(0.0727368 -1.01013e-05 -1.29825e-08)
(0.0727384 -1.01737e-05 -1.29832e-08)
(0.0727401 -1.02471e-05 -1.2984e-08)
(0.0727417 -1.03216e-05 -1.29848e-08)
(0.0727434 -1.03972e-05 -1.29856e-08)
(0.0727451 -1.04739e-05 -1.29863e-08)
(0.0727469 -1.05517e-05 -1.29872e-08)
(0.0727486 -1.06307e-05 -1.2988e-08)
(0.0727504 -1.07109e-05 -1.29888e-08)
(0.0727523 -1.07923e-05 -1.29896e-08)
(0.0727541 -1.0875e-05 -1.29905e-08)
(0.072756 -1.09589e-05 -1.29914e-08)
(0.0727579 -1.10442e-05 -1.29923e-08)
(0.0727598 -1.11308e-05 -1.29931e-08)
(0.0727618 -1.12187e-05 -1.29941e-08)
(0.0727638 -1.13081e-05 -1.2995e-08)
(0.0727764 -1.13091e-05 -2.62272e-10)
(0.0727181 -9.75397e-06 -1.29789e-08)
(0.0727195 -9.82144e-06 -1.29796e-08)
(0.072721 -9.88985e-06 -1.29803e-08)
(0.0727225 -9.95923e-06 -1.2981e-08)
(0.072724 -1.00296e-05 -1.29818e-08)
(0.0727255 -1.01009e-05 -1.29825e-08)
(0.072727 -1.01733e-05 -1.29832e-08)
(0.0727286 -1.02467e-05 -1.2984e-08)
(0.0727302 -1.03212e-05 -1.29848e-08)
(0.0727318 -1.03968e-05 -1.29856e-08)
(0.0727334 -1.04735e-05 -1.29863e-08)
(0.0727351 -1.05513e-05 -1.29872e-08)
(0.0727367 -1.06303e-05 -1.2988e-08)
(0.0727384 -1.07105e-05 -1.29888e-08)
(0.0727402 -1.07919e-05 -1.29896e-08)
(0.0727419 -1.08746e-05 -1.29905e-08)
(0.0727437 -1.09585e-05 -1.29914e-08)
(0.0727455 -1.10437e-05 -1.29923e-08)
(0.0727474 -1.11303e-05 -1.29931e-08)
(0.0727492 -1.12182e-05 -1.29941e-08)
(0.0727511 -1.13076e-05 -1.2995e-08)
(0.0727638 -1.13086e-05 -2.49797e-10)
(0.0727072 -9.75362e-06 -1.29789e-08)
(0.0727085 -9.82109e-06 -1.29796e-08)
(0.0727099 -9.88949e-06 -1.29803e-08)
(0.0727113 -9.95886e-06 -1.2981e-08)
(0.0727127 -1.00292e-05 -1.29818e-08)
(0.0727142 -1.01006e-05 -1.29825e-08)
(0.0727156 -1.01729e-05 -1.29832e-08)
(0.0727171 -1.02463e-05 -1.2984e-08)
(0.0727186 -1.03208e-05 -1.29848e-08)
(0.0727201 -1.03964e-05 -1.29856e-08)
(0.0727217 -1.04731e-05 -1.29863e-08)
(0.0727232 -1.05509e-05 -1.29872e-08)
(0.0727248 -1.06299e-05 -1.2988e-08)
(0.0727265 -1.07101e-05 -1.29888e-08)
(0.0727281 -1.07915e-05 -1.29896e-08)
(0.0727298 -1.08741e-05 -1.29905e-08)
(0.0727314 -1.0958e-05 -1.29914e-08)
(0.0727332 -1.10433e-05 -1.29923e-08)
(0.0727349 -1.11298e-05 -1.29932e-08)
(0.0727367 -1.12178e-05 -1.29941e-08)
(0.0727385 -1.13071e-05 -1.2995e-08)
(0.0727511 -1.13081e-05 -2.37323e-10)
(0.0726963 -9.75327e-06 -1.29789e-08)
(0.0726975 -9.82073e-06 -1.29796e-08)
(0.0726988 -9.88913e-06 -1.29803e-08)
(0.0727002 -9.95849e-06 -1.2981e-08)
(0.0727015 -1.00288e-05 -1.29818e-08)
(0.0727029 -1.01002e-05 -1.29825e-08)
(0.0727042 -1.01725e-05 -1.29832e-08)
(0.0727056 -1.02459e-05 -1.2984e-08)
(0.0727071 -1.03204e-05 -1.29848e-08)
(0.0727085 -1.0396e-05 -1.29856e-08)
(0.0727099 -1.04727e-05 -1.29863e-08)
(0.0727114 -1.05505e-05 -1.29872e-08)
(0.0727129 -1.06295e-05 -1.2988e-08)
(0.0727145 -1.07096e-05 -1.29888e-08)
(0.072716 -1.0791e-05 -1.29896e-08)
(0.0727176 -1.08737e-05 -1.29905e-08)
(0.0727192 -1.09576e-05 -1.29914e-08)
(0.0727208 -1.10428e-05 -1.29923e-08)
(0.0727224 -1.11294e-05 -1.29932e-08)
(0.0727241 -1.12173e-05 -1.29941e-08)
(0.0727258 -1.13066e-05 -1.2995e-08)
(0.0727385 -1.13076e-05 -2.24848e-10)
(0.0726853 -9.75292e-06 -1.29789e-08)
(0.0726865 -9.82037e-06 -1.29796e-08)
(0.0726878 -9.88877e-06 -1.29803e-08)
(0.072689 -9.95812e-06 -1.2981e-08)
(0.0726903 -1.00285e-05 -1.29818e-08)
(0.0726915 -1.00998e-05 -1.29825e-08)
(0.0726928 -1.01722e-05 -1.29832e-08)
(0.0726942 -1.02456e-05 -1.2984e-08)
(0.0726955 -1.032e-05 -1.29848e-08)
(0.0726968 -1.03956e-05 -1.29856e-08)
(0.0726982 -1.04723e-05 -1.29863e-08)
(0.0726996 -1.05501e-05 -1.29872e-08)
(0.072701 -1.0629e-05 -1.2988e-08)
(0.0727025 -1.07092e-05 -1.29888e-08)
(0.0727039 -1.07906e-05 -1.29896e-08)
(0.0727054 -1.08732e-05 -1.29905e-08)
(0.0727069 -1.09572e-05 -1.29914e-08)
(0.0727084 -1.10424e-05 -1.29923e-08)
(0.07271 -1.11289e-05 -1.29932e-08)
(0.0727116 -1.12168e-05 -1.29941e-08)
(0.0727132 -1.13062e-05 -1.2995e-08)
(0.0727258 -1.13071e-05 -2.12374e-10)
(0.0726744 -9.7525e-06 -1.29789e-08)
(0.0726755 -9.81995e-06 -1.29796e-08)
(0.0726767 -9.88834e-06 -1.29803e-08)
(0.0726779 -9.95769e-06 -1.2981e-08)
(0.072679 -1.0028e-05 -1.29818e-08)
(0.0726802 -1.00993e-05 -1.29825e-08)
(0.0726815 -1.01717e-05 -1.29832e-08)
(0.0726827 -1.02451e-05 -1.2984e-08)
(0.0726839 -1.03196e-05 -1.29848e-08)
(0.0726852 -1.03951e-05 -1.29856e-08)
(0.0726865 -1.04718e-05 -1.29864e-08)
(0.0726878 -1.05496e-05 -1.29872e-08)
(0.0726891 -1.06286e-05 -1.2988e-08)
(0.0726905 -1.07087e-05 -1.29888e-08)
(0.0726918 -1.07901e-05 -1.29896e-08)
(0.0726932 -1.08727e-05 -1.29905e-08)
(0.0726946 -1.09566e-05 -1.29914e-08)
(0.0726961 -1.10418e-05 -1.29923e-08)
(0.0726975 -1.11284e-05 -1.29932e-08)
(0.072699 -1.12163e-05 -1.29941e-08)
(0.0727005 -1.13056e-05 -1.2995e-08)
(0.0727131 -1.13065e-05 -1.99424e-10)
(0.0726635 -9.75127e-06 -1.29789e-08)
(0.0726646 -9.81871e-06 -1.29796e-08)
(0.0726656 -9.88709e-06 -1.29803e-08)
(0.0726667 -9.95642e-06 -1.2981e-08)
(0.0726678 -1.00267e-05 -1.29818e-08)
(0.0726689 -1.00981e-05 -1.29825e-08)
(0.0726701 -1.01704e-05 -1.29832e-08)
(0.0726712 -1.02438e-05 -1.2984e-08)
(0.0726724 -1.03182e-05 -1.29848e-08)
(0.0726736 -1.03938e-05 -1.29856e-08)
(0.0726748 -1.04704e-05 -1.29864e-08)
(0.072676 -1.05482e-05 -1.29872e-08)
(0.0726772 -1.06272e-05 -1.2988e-08)
(0.0726785 -1.07073e-05 -1.29888e-08)
(0.0726798 -1.07887e-05 -1.29897e-08)
(0.0726811 -1.08713e-05 -1.29905e-08)
(0.0726824 -1.09552e-05 -1.29914e-08)
(0.0726837 -1.10404e-05 -1.29923e-08)
(0.0726851 -1.11269e-05 -1.29932e-08)
(0.0726865 -1.12148e-05 -1.29941e-08)
(0.0726879 -1.13041e-05 -1.2995e-08)
(0.0727005 -1.1305e-05 -1.8158e-10)
(0.0726526 -9.75002e-06 -1.29789e-08)
(0.0726536 -9.81745e-06 -1.29796e-08)
(0.0726546 -9.88582e-06 -1.29803e-08)
(0.0726556 -9.95515e-06 -1.2981e-08)
(0.0726566 -1.00255e-05 -1.29818e-08)
(0.0726577 -1.00968e-05 -1.29825e-08)
(0.0726587 -1.01691e-05 -1.29832e-08)
(0.0726598 -1.02425e-05 -1.2984e-08)
(0.0726609 -1.03169e-05 -1.29848e-08)
(0.072662 -1.03924e-05 -1.29856e-08)
(0.0726631 -1.04691e-05 -1.29864e-08)
(0.0726642 -1.05468e-05 -1.29872e-08)
(0.0726654 -1.06258e-05 -1.2988e-08)
(0.0726665 -1.07059e-05 -1.29888e-08)
(0.0726677 -1.07873e-05 -1.29897e-08)
(0.0726689 -1.08699e-05 -1.29905e-08)
(0.0726701 -1.09537e-05 -1.29914e-08)
(0.0726714 -1.10389e-05 -1.29923e-08)
(0.0726726 -1.11254e-05 -1.29932e-08)
(0.0726739 -1.12133e-05 -1.29941e-08)
(0.0726752 -1.13026e-05 -1.2995e-08)
(0.0726878 -1.13035e-05 -1.75273e-10)
(0.0726417 -9.74877e-06 -1.29789e-08)
(0.0726426 -9.81618e-06 -1.29796e-08)
(0.0726435 -9.88454e-06 -1.29803e-08)
(0.0726445 -9.95386e-06 -1.2981e-08)
(0.0726454 -1.00241e-05 -1.29818e-08)
(0.0726464 -1.00954e-05 -1.29825e-08)
(0.0726473 -1.01678e-05 -1.29832e-08)
(0.0726483 -1.02411e-05 -1.2984e-08)
(0.0726493 -1.03155e-05 -1.29848e-08)
(0.0726503 -1.03911e-05 -1.29856e-08)
(0.0726514 -1.04677e-05 -1.29864e-08)
(0.0726524 -1.05454e-05 -1.29872e-08)
(0.0726535 -1.06244e-05 -1.2988e-08)
(0.0726545 -1.07045e-05 -1.29888e-08)
(0.0726556 -1.07858e-05 -1.29897e-08)
(0.0726568 -1.08684e-05 -1.29905e-08)
(0.0726579 -1.09523e-05 -1.29914e-08)
(0.072659 -1.10374e-05 -1.29923e-08)
(0.0726602 -1.11239e-05 -1.29932e-08)
(0.0726614 -1.12118e-05 -1.29941e-08)
(0.0726626 -1.13011e-05 -1.2995e-08)
(0.0726752 -1.1302e-05 -1.68969e-10)
(0.0726308 -9.7475e-06 -1.29789e-08)
(0.0726316 -9.8149e-06 -1.29796e-08)
(0.0726325 -9.88325e-06 -1.29803e-08)
(0.0726333 -9.95255e-06 -1.2981e-08)
(0.0726342 -1.00228e-05 -1.29818e-08)
(0.0726351 -1.00941e-05 -1.29825e-08)
(0.072636 -1.01664e-05 -1.29832e-08)
(0.0726369 -1.02398e-05 -1.2984e-08)
(0.0726378 -1.03142e-05 -1.29848e-08)
(0.0726387 -1.03897e-05 -1.29856e-08)
(0.0726397 -1.04663e-05 -1.29864e-08)
(0.0726406 -1.0544e-05 -1.29872e-08)
(0.0726416 -1.0623e-05 -1.2988e-08)
(0.0726426 -1.07031e-05 -1.29888e-08)
(0.0726436 -1.07844e-05 -1.29897e-08)
(0.0726446 -1.0867e-05 -1.29905e-08)
(0.0726456 -1.09508e-05 -1.29914e-08)
(0.0726467 -1.10359e-05 -1.29923e-08)
(0.0726477 -1.11224e-05 -1.29932e-08)
(0.0726488 -1.12103e-05 -1.29941e-08)
(0.0726499 -1.12995e-05 -1.2995e-08)
(0.0726626 -1.13005e-05 -1.6267e-10)
(0.0726199 -9.74621e-06 -1.29789e-08)
(0.0726206 -9.81361e-06 -1.29796e-08)
(0.0726214 -9.88194e-06 -1.29803e-08)
(0.0726222 -9.95123e-06 -1.2981e-08)
(0.072623 -1.00215e-05 -1.29818e-08)
(0.0726238 -1.00928e-05 -1.29825e-08)
(0.0726246 -1.01651e-05 -1.29832e-08)
(0.0726254 -1.02384e-05 -1.2984e-08)
(0.0726262 -1.03128e-05 -1.29848e-08)
(0.0726271 -1.03883e-05 -1.29856e-08)
(0.0726279 -1.04649e-05 -1.29864e-08)
(0.0726288 -1.05426e-05 -1.29872e-08)
(0.0726297 -1.06215e-05 -1.2988e-08)
(0.0726306 -1.07016e-05 -1.29888e-08)
(0.0726315 -1.07829e-05 -1.29897e-08)
(0.0726324 -1.08655e-05 -1.29905e-08)
(0.0726334 -1.09493e-05 -1.29914e-08)
(0.0726343 -1.10344e-05 -1.29923e-08)
(0.0726353 -1.11209e-05 -1.29932e-08)
(0.0726363 -1.12087e-05 -1.29941e-08)
(0.0726373 -1.1298e-05 -1.2995e-08)
(0.0726499 -1.12989e-05 -1.56375e-10)
(0.072609 -9.74492e-06 -1.29789e-08)
(0.0726097 -9.8123e-06 -1.29796e-08)
(0.0726104 -9.88062e-06 -1.29803e-08)
(0.0726111 -9.9499e-06 -1.2981e-08)
(0.0726118 -1.00202e-05 -1.29818e-08)
(0.0726125 -1.00914e-05 -1.29825e-08)
(0.0726132 -1.01637e-05 -1.29833e-08)
(0.072614 -1.0237e-05 -1.2984e-08)
(0.0726147 -1.03114e-05 -1.29848e-08)
(0.0726155 -1.03869e-05 -1.29856e-08)
(0.0726162 -1.04635e-05 -1.29864e-08)
(0.072617 -1.05412e-05 -1.29872e-08)
(0.0726178 -1.06201e-05 -1.2988e-08)
(0.0726186 -1.07001e-05 -1.29888e-08)
(0.0726194 -1.07814e-05 -1.29897e-08)
(0.0726203 -1.0864e-05 -1.29905e-08)
(0.0726211 -1.09478e-05 -1.29914e-08)
(0.072622 -1.10329e-05 -1.29923e-08)
(0.0726229 -1.11194e-05 -1.29932e-08)
(0.0726237 -1.12072e-05 -1.29941e-08)
(0.0726246 -1.12964e-05 -1.2995e-08)
(0.0726373 -1.12973e-05 -1.50084e-10)
(0.0725981 -9.74361e-06 -1.29789e-08)
(0.0725987 -9.81098e-06 -1.29796e-08)
(0.0725993 -9.87929e-06 -1.29803e-08)
(0.0725999 -9.94855e-06 -1.2981e-08)
(0.0726006 -1.00188e-05 -1.29818e-08)
(0.0726012 -1.009e-05 -1.29825e-08)
(0.0726018 -1.01623e-05 -1.29833e-08)
(0.0726025 -1.02356e-05 -1.2984e-08)
(0.0726032 -1.031e-05 -1.29848e-08)
(0.0726038 -1.03854e-05 -1.29856e-08)
(0.0726045 -1.0462e-05 -1.29864e-08)
(0.0726052 -1.05397e-05 -1.29872e-08)
(0.0726059 -1.06186e-05 -1.2988e-08)
(0.0726067 -1.06987e-05 -1.29888e-08)
(0.0726074 -1.07799e-05 -1.29897e-08)
(0.0726081 -1.08625e-05 -1.29905e-08)
(0.0726089 -1.09463e-05 -1.29914e-08)
(0.0726096 -1.10314e-05 -1.29923e-08)
(0.0726104 -1.11178e-05 -1.29932e-08)
(0.0726112 -1.12056e-05 -1.29941e-08)
(0.072612 -1.12948e-05 -1.2995e-08)
(0.0726246 -1.12957e-05 -1.43797e-10)
(0.0725872 -9.74229e-06 -1.29789e-08)
(0.0725877 -9.80964e-06 -1.29796e-08)
(0.0725882 -9.87794e-06 -1.29803e-08)
(0.0725888 -9.94719e-06 -1.2981e-08)
(0.0725893 -1.00174e-05 -1.29818e-08)
(0.0725899 -1.00887e-05 -1.29825e-08)
(0.0725905 -1.01609e-05 -1.29833e-08)
(0.072591 -1.02342e-05 -1.2984e-08)
(0.0725916 -1.03086e-05 -1.29848e-08)
(0.0725922 -1.0384e-05 -1.29856e-08)
(0.0725928 -1.04606e-05 -1.29864e-08)
(0.0725934 -1.05383e-05 -1.29872e-08)
(0.0725941 -1.06171e-05 -1.2988e-08)
(0.0725947 -1.06972e-05 -1.29888e-08)
(0.0725953 -1.07784e-05 -1.29897e-08)
(0.072596 -1.08609e-05 -1.29905e-08)
(0.0725966 -1.09447e-05 -1.29914e-08)
(0.0725973 -1.10298e-05 -1.29923e-08)
(0.072598 -1.11162e-05 -1.29932e-08)
(0.0725987 -1.1204e-05 -1.29941e-08)
(0.0725994 -1.12932e-05 -1.2995e-08)
(0.072612 -1.12941e-05 -1.37514e-10)
(0.0725763 -9.74095e-06 -1.29789e-08)
(0.0725767 -9.8083e-06 -1.29796e-08)
(0.0725772 -9.87658e-06 -1.29803e-08)
(0.0725777 -9.94582e-06 -1.2981e-08)
(0.0725781 -1.0016e-05 -1.29818e-08)
(0.0725786 -1.00873e-05 -1.29825e-08)
(0.0725791 -1.01595e-05 -1.29833e-08)
(0.0725796 -1.02328e-05 -1.2984e-08)
(0.0725801 -1.03071e-05 -1.29848e-08)
(0.0725806 -1.03825e-05 -1.29856e-08)
(0.0725811 -1.04591e-05 -1.29864e-08)
(0.0725816 -1.05368e-05 -1.29872e-08)
(0.0725822 -1.06156e-05 -1.2988e-08)
(0.0725827 -1.06956e-05 -1.29888e-08)
(0.0725833 -1.07769e-05 -1.29897e-08)
(0.0725838 -1.08594e-05 -1.29905e-08)
(0.0725844 -1.09431e-05 -1.29914e-08)
(0.072585 -1.10282e-05 -1.29923e-08)
(0.0725855 -1.11146e-05 -1.29932e-08)
(0.0725861 -1.12024e-05 -1.29941e-08)
(0.0725867 -1.12915e-05 -1.2995e-08)
(0.0725994 -1.12925e-05 -1.31236e-10)
(0.0725654 -9.7396e-06 -1.29789e-08)
(0.0725658 -9.80694e-06 -1.29796e-08)
(0.0725661 -9.8752e-06 -1.29803e-08)
(0.0725665 -9.94443e-06 -1.2981e-08)
(0.0725669 -1.00146e-05 -1.29818e-08)
(0.0725673 -1.00858e-05 -1.29825e-08)
(0.0725677 -1.01581e-05 -1.29833e-08)
(0.0725681 -1.02313e-05 -1.2984e-08)
(0.0725686 -1.03057e-05 -1.29848e-08)
(0.072569 -1.03811e-05 -1.29856e-08)
(0.0725694 -1.04576e-05 -1.29864e-08)
(0.0725699 -1.05353e-05 -1.29872e-08)
(0.0725703 -1.06141e-05 -1.2988e-08)
(0.0725707 -1.06941e-05 -1.29888e-08)
(0.0725712 -1.07753e-05 -1.29897e-08)
(0.0725717 -1.08578e-05 -1.29905e-08)
(0.0725721 -1.09416e-05 -1.29914e-08)
(0.0725726 -1.10266e-05 -1.29923e-08)
(0.0725731 -1.1113e-05 -1.29932e-08)
(0.0725736 -1.12007e-05 -1.29941e-08)
(0.0725741 -1.12899e-05 -1.2995e-08)
(0.0725867 -1.12908e-05 -1.24961e-10)
(0.0725545 -9.73824e-06 -1.29789e-08)
(0.0725548 -9.80556e-06 -1.29796e-08)
(0.0725551 -9.87382e-06 -1.29803e-08)
(0.0725554 -9.94303e-06 -1.2981e-08)
(0.0725557 -1.00132e-05 -1.29818e-08)
(0.072556 -1.00844e-05 -1.29825e-08)
(0.0725564 -1.01566e-05 -1.29833e-08)
(0.0725567 -1.02299e-05 -1.2984e-08)
(0.072557 -1.03042e-05 -1.29848e-08)
(0.0725574 -1.03796e-05 -1.29856e-08)
(0.0725577 -1.04561e-05 -1.29864e-08)
(0.0725581 -1.05338e-05 -1.29872e-08)
(0.0725584 -1.06126e-05 -1.2988e-08)
(0.0725588 -1.06926e-05 -1.29888e-08)
(0.0725591 -1.07738e-05 -1.29897e-08)
(0.0725595 -1.08562e-05 -1.29905e-08)
(0.0725599 -1.094e-05 -1.29914e-08)
(0.0725603 -1.1025e-05 -1.29923e-08)
(0.0725607 -1.11114e-05 -1.29932e-08)
(0.0725611 -1.11991e-05 -1.29941e-08)
(0.0725615 -1.12882e-05 -1.2995e-08)
(0.0725741 -1.12892e-05 -1.18691e-10)
(0.0725436 -9.73687e-06 -1.29789e-08)
(0.0725438 -9.80418e-06 -1.29796e-08)
(0.072544 -9.87242e-06 -1.29803e-08)
(0.0725443 -9.94162e-06 -1.2981e-08)
(0.0725445 -1.00118e-05 -1.29818e-08)
(0.0725448 -1.0083e-05 -1.29825e-08)
(0.072545 -1.01552e-05 -1.29833e-08)
(0.0725452 -1.02284e-05 -1.2984e-08)
(0.0725455 -1.03027e-05 -1.29848e-08)
(0.0725458 -1.03781e-05 -1.29856e-08)
(0.072546 -1.04546e-05 -1.29864e-08)
(0.0725463 -1.05322e-05 -1.29872e-08)
(0.0725465 -1.0611e-05 -1.2988e-08)
(0.0725468 -1.0691e-05 -1.29888e-08)
(0.0725471 -1.07722e-05 -1.29897e-08)
(0.0725474 -1.08546e-05 -1.29905e-08)
(0.0725476 -1.09384e-05 -1.29914e-08)
(0.0725479 -1.10234e-05 -1.29923e-08)
(0.0725482 -1.11097e-05 -1.29932e-08)
(0.0725485 -1.11974e-05 -1.29941e-08)
(0.0725488 -1.12865e-05 -1.2995e-08)
(0.0725615 -1.12875e-05 -1.12425e-10)
(0.0725327 -9.73548e-06 -1.29789e-08)
(0.0725328 -9.80278e-06 -1.29796e-08)
(0.072533 -9.87101e-06 -1.29803e-08)
(0.0725331 -9.94019e-06 -1.2981e-08)
(0.0725333 -1.00104e-05 -1.29818e-08)
(0.0725335 -1.00815e-05 -1.29825e-08)
(0.0725336 -1.01537e-05 -1.29833e-08)
(0.0725338 -1.02269e-05 -1.2984e-08)
(0.072534 -1.03012e-05 -1.29848e-08)
(0.0725341 -1.03766e-05 -1.29856e-08)
(0.0725343 -1.04531e-05 -1.29864e-08)
(0.0725345 -1.05307e-05 -1.29872e-08)
(0.0725347 -1.06095e-05 -1.2988e-08)
(0.0725348 -1.06894e-05 -1.29888e-08)
(0.072535 -1.07706e-05 -1.29897e-08)
(0.0725352 -1.0853e-05 -1.29905e-08)
(0.0725354 -1.09367e-05 -1.29914e-08)
(0.0725356 -1.10217e-05 -1.29923e-08)
(0.0725358 -1.11081e-05 -1.29932e-08)
(0.072536 -1.11957e-05 -1.29941e-08)
(0.0725362 -1.12848e-05 -1.2995e-08)
(0.0725488 -1.12858e-05 -1.06163e-10)
(0.0725218 -9.73408e-06 -1.29789e-08)
(0.0725219 -9.80137e-06 -1.29796e-08)
(0.0725219 -9.86958e-06 -1.29803e-08)
(0.072522 -9.93875e-06 -1.2981e-08)
(0.0725221 -1.00089e-05 -1.29818e-08)
(0.0725222 -1.00801e-05 -1.29825e-08)
(0.0725223 -1.01522e-05 -1.29833e-08)
(0.0725223 -1.02254e-05 -1.2984e-08)
(0.0725224 -1.02997e-05 -1.29848e-08)
(0.0725225 -1.0375e-05 -1.29856e-08)
(0.0725226 -1.04515e-05 -1.29864e-08)
(0.0725227 -1.05291e-05 -1.29872e-08)
(0.0725228 -1.06079e-05 -1.2988e-08)
(0.0725229 -1.06878e-05 -1.29888e-08)
(0.072523 -1.0769e-05 -1.29897e-08)
(0.0725231 -1.08514e-05 -1.29905e-08)
(0.0725232 -1.09351e-05 -1.29914e-08)
(0.0725233 -1.10201e-05 -1.29923e-08)
(0.0725234 -1.11064e-05 -1.29932e-08)
(0.0725235 -1.1194e-05 -1.29941e-08)
(0.0725236 -1.12831e-05 -1.2995e-08)
(0.0725362 -1.12841e-05 -9.99056e-11)
(0.0725107 -9.72059e-06 -1.29789e-08)
(0.0725107 -9.78778e-06 -1.29796e-08)
(0.0725107 -9.85591e-06 -1.29803e-08)
(0.0725107 -9.92499e-06 -1.2981e-08)
(0.0725107 -9.99505e-06 -1.29818e-08)
(0.0725107 -1.00661e-05 -1.29825e-08)
(0.0725107 -1.01382e-05 -1.29833e-08)
(0.0725107 -1.02113e-05 -1.2984e-08)
(0.0725107 -1.02855e-05 -1.29848e-08)
(0.0725107 -1.03607e-05 -1.29856e-08)
(0.0725107 -1.04371e-05 -1.29864e-08)
(0.0725107 -1.05146e-05 -1.29872e-08)
(0.0725107 -1.05932e-05 -1.2988e-08)
(0.0725107 -1.06731e-05 -1.29888e-08)
(0.0725107 -1.07542e-05 -1.29897e-08)
(0.0725107 -1.08365e-05 -1.29905e-08)
(0.0725107 -1.092e-05 -1.29914e-08)
(0.0725107 -1.10049e-05 -1.29923e-08)
(0.0725107 -1.10911e-05 -1.29932e-08)
(0.0725107 -1.11786e-05 -1.29941e-08)
(0.0725107 -1.12676e-05 -1.2995e-08)
(0.0725233 -1.12688e-05 -1.86959e-10)
)
;

boundaryField
{
    inlet
    {
        type            calculated;
        value           uniform (0.0741049 0 0);
    }
    outlet2
    {
        type            calculated;
        value           uniform (0.0741049 0 0);
    }
    outlet1
    {
        type            calculated;
        value           uniform (0.0741049 0 0);
    }
    wall
    {
        type            calculated;
        value           uniform (0.0741049 0 0);
    }
    symmetryBottom
    {
        type            symmetry;
    }
    symmetryZ0
    {
        type            symmetry;
    }
    symmetryZ05
    {
        type            symmetry;
    }
}


// ************************************************************************* //
