/*--------------------------------*- C++ -*----------------------------------*\
| =========                 |                                                 |
| \\      /  F ield         | OpenFOAM: The Open Source CFD Toolbox           |
|  \\    /   O peration     | Version:  2412                                  |
|   \\  /    A nd           | Website:  www.openfoam.com                      |
|    \\/     M anipulation  |                                                 |
\*---------------------------------------------------------------------------*/
FoamFile
{
    version     2.0;
    format      ascii;
    arch        "LSB;label=32;scalar=64";
    class       volVectorField;
    location    "1.66832e-07";
    object      U;
}
// * * * * * * * * * * * * * * * * * * * * * * * * * * * * * * * * * * * * * //

dimensions      [0 0 0 0 0 0 0];

internalField   nonuniform List<vector> 
625
(
(2636.36 -0.000186021 0.000887414)
(2635.96 -0.000729137 0.00139814)
(2635.96 -0.000731997 3.01629e-06)
(2636.36 -0.346507 0.000887415)
(2635.96 -0.352488 0.00139814)
(2635.96 -0.35249 -2.99343e-06)
(2636.36 -0.346412 0.000887415)
(2635.96 -0.352389 0.00139814)
(2635.96 -0.352392 -2.97774e-06)
(2636.36 -0.346412 0.000887415)
(2635.96 -0.352389 0.00139814)
(2635.96 -0.352392 -2.97774e-06)
(2636.36 -0.346412 0.000887415)
(2635.96 -0.352389 0.00139814)
(2635.96 -0.352392 -2.97774e-06)
(2636.36 -0.346412 0.000887415)
(2635.96 -0.352389 0.00139814)
(2635.96 -0.352392 -2.97774e-06)
(2636.36 -0.346412 0.000887415)
(2635.96 -0.352389 0.00139814)
(2635.96 -0.352392 -2.97774e-06)
(2636.36 -0.346412 0.000887415)
(2635.96 -0.352389 0.00139814)
(2635.96 -0.352392 -2.97774e-06)
(2636.36 -0.346412 0.000887415)
(2635.96 -0.352389 0.00139814)
(2635.96 -0.352392 -2.97774e-06)
(2636.36 -0.346412 0.000887415)
(2635.96 -0.352389 0.00139814)
(2635.96 -0.352392 -2.97774e-06)
(2636.36 -0.346412 0.000887415)
(2635.96 -0.352389 0.00139814)
(2635.96 -0.352392 -2.97774e-06)
(2636.36 -0.346412 0.000887415)
(2635.96 -0.352389 0.00139814)
(2635.96 -0.352392 -2.97774e-06)
(2636.36 -0.346412 0.000887415)
(2635.96 -0.352389 0.00139814)
(2635.96 -0.352392 -2.97774e-06)
(2636.36 -0.346412 0.000887415)
(2635.96 -0.352389 0.00139814)
(2635.96 -0.352392 -2.97774e-06)
(2636.36 -0.346412 0.000887415)
(2635.96 -0.352389 0.00139814)
(2635.96 -0.352392 -2.97774e-06)
(2636.36 -0.346412 0.000887415)
(2635.96 -0.352389 0.00139814)
(2635.96 -0.352392 -2.97774e-06)
(2636.36 -0.346412 0.000887415)
(2635.96 -0.352389 0.00139814)
(2635.96 -0.352392 -2.97774e-06)
(2636.36 -0.346412 0.000887415)
(2635.96 -0.352389 0.00139814)
(2635.96 -0.352392 -2.97774e-06)
(2636.36 -0.346412 0.000887415)
(2635.96 -0.352389 0.00139814)
(2635.96 -0.352392 -2.97774e-06)
(2636.36 -0.346412 0.000887415)
(2635.96 -0.352389 0.00139814)
(2635.96 -0.352392 -2.97774e-06)
(2636.36 -0.346412 0.000887415)
(2635.96 -0.352389 0.00139814)
(2635.96 -0.352392 -2.97774e-06)
(2636.36 -0.346412 0.000887415)
(2635.96 -0.352389 0.00139814)
(2635.96 -0.352392 -2.97774e-06)
(2636.36 -0.346412 0.000887415)
(2635.96 -0.352389 0.00139814)
(2635.96 -0.352392 -2.97774e-06)
(2636.36 -0.346412 0.000887415)
(2635.96 -0.352389 0.00139814)
(2635.96 -0.352392 -2.97774e-06)
(2636.36 -0.346411 0.00088777)
(2635.96 -0.351848 0.00139867)
(2635.96 -0.351851 0.00139547)
(2634.81 0.00640822 0.00143672)
(2634.81 0.00650439 0.00143704)
(2634.8 0.00660262 0.00143735)
(2634.79 0.00670298 0.00143768)
(2634.78 0.00680553 0.001438)
(2634.77 0.00691033 0.00143833)
(2634.76 0.00701745 0.00143867)
(2634.75 0.00712695 0.00143901)
(2634.74 0.0072389 0.00143936)
(2634.73 0.00735339 0.00143971)
(2634.72 0.00747047 0.00144006)
(2634.71 0.00759024 0.00144042)
(2634.7 0.00771278 0.00144079)
(2634.69 0.00783816 0.00144116)
(2634.68 0.00796648 0.00144154)
(2634.67 0.00809782 0.00144193)
(2634.66 0.00823229 0.00144232)
(2634.65 0.00836998 0.00144271)
(2634.63 0.008511 0.00144311)
(2634.62 0.00865544 0.00144352)
(2634.61 0.00880343 0.00144394)
(2634.61 0.0088857 7.40878e-05)
(2636.1 -0.351755 0.00141977)
(2636.1 -0.354169 0.00141996)
(2636.1 -0.356616 0.00142016)
(2636.1 -0.359097 0.00142036)
(2636.1 -0.361612 0.00142056)
(2636.1 -0.364164 0.00142076)
(2636.1 -0.366751 0.00142097)
(2636.1 -0.369375 0.00142118)
(2636.1 -0.372038 0.00142139)
(2636.1 -0.374739 0.00142161)
(2636.1 -0.377479 0.00142182)
(2636.1 -0.38026 0.00142205)
(2636.1 -0.383082 0.00142227)
(2636.11 -0.385946 0.0014225)
(2636.11 -0.388854 0.00142273)
(2636.11 -0.391805 0.00142297)
(2636.11 -0.394802 0.00142321)
(2636.11 -0.397845 0.00142345)
(2636.11 -0.400935 0.0014237)
(2636.11 -0.404073 0.00142395)
(2636.11 -0.407262 0.0014242)
(2636.11 -0.407231 -1.27212e-05)
(2636.1 -0.353468 0.00142006)
(2636.1 -0.355905 0.00142026)
(2636.1 -0.358376 0.00142045)
(2636.1 -0.360882 0.00142065)
(2636.1 -0.363423 0.00142086)
(2636.1 -0.366 0.00142106)
(2636.1 -0.368614 0.00142127)
(2636.1 -0.371265 0.00142148)
(2636.1 -0.373955 0.0014217)
(2636.1 -0.376684 0.00142192)
(2636.1 -0.379453 0.00142214)
(2636.1 -0.382263 0.00142236)
(2636.1 -0.385115 0.00142259)
(2636.1 -0.38801 0.00142282)
(2636.1 -0.390949 0.00142306)
(2636.1 -0.393933 0.0014233)
(2636.1 -0.396962 0.00142354)
(2636.1 -0.400039 0.00142378)
(2636.1 -0.403164 0.00142403)
(2636.1 -0.406337 0.00142429)
(2636.1 -0.409562 0.00142455)
(2636.11 -0.40953 -1.21367e-05)
(2636.09 -0.353508 0.00142034)
(2636.09 -0.355946 0.00142054)
(2636.09 -0.358418 0.00142074)
(2636.1 -0.360924 0.00142094)
(2636.1 -0.363465 0.00142115)
(2636.1 -0.366043 0.00142135)
(2636.1 -0.368657 0.00142156)
(2636.1 -0.371309 0.00142178)
(2636.1 -0.374 0.001422)
(2636.1 -0.376729 0.00142222)
(2636.1 -0.379499 0.00142244)
(2636.1 -0.38231 0.00142267)
(2636.1 -0.385163 0.0014229)
(2636.1 -0.388059 0.00142313)
(2636.1 -0.390998 0.00142337)
(2636.1 -0.393983 0.00142361)
(2636.1 -0.397013 0.00142385)
(2636.1 -0.40009 0.0014241)
(2636.1 -0.403216 0.00142435)
(2636.1 -0.40639 0.00142461)
(2636.1 -0.409615 0.00142487)
(2636.1 -0.409583 -1.16937e-05)
(2636.09 -0.353548 0.00142062)
(2636.09 -0.355986 0.00142082)
(2636.09 -0.358459 0.00142102)
(2636.09 -0.360965 0.00142123)
(2636.09 -0.363508 0.00142143)
(2636.09 -0.366086 0.00142164)
(2636.09 -0.368701 0.00142186)
(2636.09 -0.371353 0.00142207)
(2636.09 -0.374044 0.00142229)
(2636.09 -0.376775 0.00142251)
(2636.1 -0.379545 0.00142274)
(2636.1 -0.382357 0.00142297)
(2636.1 -0.38521 0.0014232)
(2636.1 -0.388107 0.00142344)
(2636.1 -0.391047 0.00142368)
(2636.1 -0.394032 0.00142392)
(2636.1 -0.397063 0.00142417)
(2636.1 -0.400141 0.00142442)
(2636.1 -0.403268 0.00142467)
(2636.1 -0.406443 0.00142493)
(2636.1 -0.409669 0.00142519)
(2636.1 -0.409636 -1.12507e-05)
(2636.09 -0.353588 0.0014209)
(2636.09 -0.356027 0.0014211)
(2636.09 -0.3585 0.0014213)
(2636.09 -0.361007 0.00142151)
(2636.09 -0.36355 0.00142172)
(2636.09 -0.366129 0.00142193)
(2636.09 -0.368744 0.00142215)
(2636.09 -0.371397 0.00142237)
(2636.09 -0.374089 0.00142259)
(2636.09 -0.37682 0.00142281)
(2636.09 -0.379591 0.00142304)
(2636.09 -0.382404 0.00142327)
(2636.09 -0.385258 0.00142351)
(2636.09 -0.388155 0.00142374)
(2636.09 -0.391096 0.00142399)
(2636.09 -0.394082 0.00142423)
(2636.09 -0.397114 0.00142448)
(2636.1 -0.400193 0.00142473)
(2636.1 -0.40332 0.00142499)
(2636.1 -0.406496 0.00142525)
(2636.1 -0.409723 0.00142552)
(2636.1 -0.40969 -1.08077e-05)
(2636.09 -0.353628 0.00142118)
(2636.09 -0.356068 0.00142138)
(2636.09 -0.358541 0.00142159)
(2636.09 -0.361049 0.0014218)
(2636.09 -0.363592 0.00142201)
(2636.09 -0.366172 0.00142222)
(2636.09 -0.368788 0.00142244)
(2636.09 -0.371442 0.00142266)
(2636.09 -0.374134 0.00142288)
(2636.09 -0.376866 0.00142311)
(2636.09 -0.379637 0.00142334)
(2636.09 -0.38245 0.00142357)
(2636.09 -0.385305 0.00142381)
(2636.09 -0.388203 0.00142405)
(2636.09 -0.391145 0.00142429)
(2636.09 -0.394132 0.00142454)
(2636.09 -0.397164 0.00142479)
(2636.09 -0.400244 0.00142505)
(2636.09 -0.403372 0.00142531)
(2636.09 -0.406549 0.00142557)
(2636.09 -0.409776 0.00142584)
(2636.1 -0.409743 -1.03647e-05)
(2636.08 -0.353668 0.00142146)
(2636.08 -0.356108 0.00142166)
(2636.08 -0.358582 0.00142187)
(2636.09 -0.361091 0.00142208)
(2636.09 -0.363635 0.00142229)
(2636.09 -0.366214 0.00142251)
(2636.09 -0.368831 0.00142273)
(2636.09 -0.371486 0.00142295)
(2636.09 -0.374179 0.00142318)
(2636.09 -0.376911 0.00142341)
(2636.09 -0.379684 0.00142364)
(2636.09 -0.382497 0.00142388)
(2636.09 -0.385353 0.00142412)
(2636.09 -0.388251 0.00142436)
(2636.09 -0.391194 0.0014246)
(2636.09 -0.394181 0.00142486)
(2636.09 -0.397215 0.00142511)
(2636.09 -0.400295 0.00142537)
(2636.09 -0.403424 0.00142563)
(2636.09 -0.406602 0.0014259)
(2636.09 -0.40983 0.00142617)
(2636.09 -0.409796 -9.92175e-06)
(2636.08 -0.353708 0.00142174)
(2636.08 -0.356149 0.00142195)
(2636.08 -0.358623 0.00142215)
(2636.08 -0.361132 0.00142237)
(2636.08 -0.363677 0.00142258)
(2636.08 -0.366257 0.0014228)
(2636.08 -0.368875 0.00142302)
(2636.08 -0.37153 0.00142325)
(2636.08 -0.374224 0.00142347)
(2636.08 -0.376957 0.00142371)
(2636.08 -0.37973 0.00142394)
(2636.09 -0.382544 0.00142418)
(2636.09 -0.3854 0.00142442)
(2636.09 -0.3883 0.00142467)
(2636.09 -0.391243 0.00142491)
(2636.09 -0.394231 0.00142517)
(2636.09 -0.397265 0.00142542)
(2636.09 -0.400346 0.00142568)
(2636.09 -0.403476 0.00142595)
(2636.09 -0.406655 0.00142622)
(2636.09 -0.409884 0.00142649)
(2636.09 -0.409849 -9.47877e-06)
(2636.08 -0.353746 0.00142202)
(2636.08 -0.356187 0.00142222)
(2636.08 -0.358662 0.00142244)
(2636.08 -0.361172 0.00142265)
(2636.08 -0.363717 0.00142287)
(2636.08 -0.366298 0.00142309)
(2636.08 -0.368916 0.00142331)
(2636.08 -0.371572 0.00142354)
(2636.08 -0.374266 0.00142377)
(2636.08 -0.376999 0.001424)
(2636.08 -0.379773 0.00142424)
(2636.08 -0.382588 0.00142448)
(2636.08 -0.385445 0.00142472)
(2636.08 -0.388345 0.00142497)
(2636.08 -0.391289 0.00142522)
(2636.08 -0.394278 0.00142548)
(2636.08 -0.397313 0.00142574)
(2636.08 -0.400395 0.001426)
(2636.08 -0.403525 0.00142627)
(2636.09 -0.406705 0.00142654)
(2636.09 -0.409935 0.00142681)
(2636.09 -0.4099 -9.01831e-06)
(2636.08 -0.353754 0.00142226)
(2636.08 -0.356195 0.00142247)
(2636.08 -0.358671 0.00142268)
(2636.08 -0.361181 0.0014229)
(2636.08 -0.363726 0.00142312)
(2636.08 -0.366308 0.00142334)
(2636.08 -0.368926 0.00142357)
(2636.08 -0.371582 0.00142379)
(2636.08 -0.374277 0.00142403)
(2636.08 -0.377011 0.00142426)
(2636.08 -0.379785 0.0014245)
(2636.08 -0.3826 0.00142474)
(2636.08 -0.385458 0.00142499)
(2636.08 -0.388358 0.00142524)
(2636.08 -0.391303 0.00142549)
(2636.08 -0.394292 0.00142575)
(2636.08 -0.397327 0.00142601)
(2636.08 -0.40041 0.00142628)
(2636.08 -0.403541 0.00142655)
(2636.08 -0.406721 0.00142682)
(2636.08 -0.409951 0.0014271)
(2636.09 -0.409916 -8.37711e-06)
(2636.07 -0.353762 0.00142251)
(2636.08 -0.356203 0.00142272)
(2636.08 -0.358679 0.00142293)
(2636.08 -0.361189 0.00142315)
(2636.08 -0.363735 0.00142337)
(2636.08 -0.366317 0.00142359)
(2636.08 -0.368936 0.00142382)
(2636.08 -0.371592 0.00142405)
(2636.08 -0.374287 0.00142429)
(2636.08 -0.377022 0.00142452)
(2636.08 -0.379796 0.00142476)
(2636.08 -0.382612 0.00142501)
(2636.08 -0.38547 0.00142526)
(2636.08 -0.388371 0.00142551)
(2636.08 -0.391316 0.00142576)
(2636.08 -0.394306 0.00142602)
(2636.08 -0.397341 0.00142629)
(2636.08 -0.400424 0.00142655)
(2636.08 -0.403556 0.00142682)
(2636.08 -0.406736 0.0014271)
(2636.08 -0.409967 0.00142738)
(2636.08 -0.409932 -8.15397e-06)
(2636.07 -0.353769 0.00142275)
(2636.07 -0.356211 0.00142296)
(2636.07 -0.358687 0.00142318)
(2636.07 -0.361198 0.0014234)
(2636.07 -0.363744 0.00142362)
(2636.07 -0.366326 0.00142385)
(2636.07 -0.368945 0.00142408)
(2636.07 -0.371602 0.00142431)
(2636.07 -0.374297 0.00142454)
(2636.07 -0.377032 0.00142478)
(2636.07 -0.379807 0.00142503)
(2636.07 -0.382623 0.00142527)
(2636.08 -0.385482 0.00142552)
(2636.08 -0.388383 0.00142578)
(2636.08 -0.391328 0.00142603)
(2636.08 -0.394318 0.0014263)
(2636.08 -0.397355 0.00142656)
(2636.08 -0.400438 0.00142683)
(2636.08 -0.40357 0.0014271)
(2636.08 -0.406751 0.00142738)
(2636.08 -0.409983 0.00142766)
(2636.08 -0.409948 -7.93097e-06)
(2636.07 -0.353776 0.00142299)
(2636.07 -0.356218 0.00142321)
(2636.07 -0.358694 0.00142343)
(2636.07 -0.361205 0.00142365)
(2636.07 -0.363752 0.00142387)
(2636.07 -0.366334 0.0014241)
(2636.07 -0.368954 0.00142433)
(2636.07 -0.371611 0.00142457)
(2636.07 -0.374307 0.0014248)
(2636.07 -0.377042 0.00142504)
(2636.07 -0.379817 0.00142529)
(2636.07 -0.382634 0.00142554)
(2636.07 -0.385493 0.00142579)
(2636.07 -0.388394 0.00142605)
(2636.07 -0.39134 0.0014263)
(2636.07 -0.394331 0.00142657)
(2636.07 -0.397368 0.00142684)
(2636.07 -0.400452 0.00142711)
(2636.07 -0.403584 0.00142738)
(2636.07 -0.406765 0.00142766)
(2636.07 -0.409998 0.00142795)
(2636.08 -0.409963 -7.70813e-06)
(2636.07 -0.353782 0.00142324)
(2636.07 -0.356224 0.00142346)
(2636.07 -0.358701 0.00142368)
(2636.07 -0.361212 0.0014239)
(2636.07 -0.363759 0.00142413)
(2636.07 -0.366342 0.00142435)
(2636.07 -0.368962 0.00142459)
(2636.07 -0.371619 0.00142482)
(2636.07 -0.374316 0.00142506)
(2636.07 -0.377051 0.00142531)
(2636.07 -0.379827 0.00142555)
(2636.07 -0.382644 0.0014258)
(2636.07 -0.385503 0.00142606)
(2636.07 -0.388405 0.00142631)
(2636.07 -0.391351 0.00142658)
(2636.07 -0.394343 0.00142684)
(2636.07 -0.39738 0.00142711)
(2636.07 -0.400464 0.00142739)
(2636.07 -0.403597 0.00142766)
(2636.07 -0.406779 0.00142795)
(2636.07 -0.410012 0.00142823)
(2636.07 -0.409977 -7.48543e-06)
(2636.07 -0.353788 0.00142348)
(2636.07 -0.356231 0.0014237)
(2636.07 -0.358707 0.00142392)
(2636.07 -0.361219 0.00142415)
(2636.07 -0.363766 0.00142438)
(2636.07 -0.366349 0.00142461)
(2636.07 -0.36897 0.00142484)
(2636.07 -0.371627 0.00142508)
(2636.07 -0.374324 0.00142532)
(2636.07 -0.37706 0.00142557)
(2636.07 -0.379836 0.00142582)
(2636.07 -0.382653 0.00142607)
(2636.07 -0.385513 0.00142632)
(2636.07 -0.388416 0.00142658)
(2636.07 -0.391362 0.00142685)
(2636.07 -0.394354 0.00142711)
(2636.07 -0.397391 0.00142739)
(2636.07 -0.400476 0.00142766)
(2636.07 -0.40361 0.00142794)
(2636.07 -0.406792 0.00142823)
(2636.07 -0.410025 0.00142852)
(2636.07 -0.40999 -7.26287e-06)
(2636.06 -0.353793 0.00142373)
(2636.06 -0.356236 0.00142395)
(2636.06 -0.358713 0.00142417)
(2636.06 -0.361225 0.0014244)
(2636.06 -0.363773 0.00142463)
(2636.06 -0.366356 0.00142486)
(2636.06 -0.368977 0.0014251)
(2636.06 -0.371635 0.00142534)
(2636.06 -0.374332 0.00142558)
(2636.06 -0.377068 0.00142583)
(2636.06 -0.379845 0.00142608)
(2636.06 -0.382662 0.00142633)
(2636.06 -0.385522 0.00142659)
(2636.06 -0.388425 0.00142685)
(2636.06 -0.391372 0.00142712)
(2636.07 -0.394364 0.00142739)
(2636.07 -0.397402 0.00142766)
(2636.07 -0.400488 0.00142794)
(2636.07 -0.403621 0.00142822)
(2636.07 -0.406804 0.00142851)
(2636.07 -0.410038 0.0014288)
(2636.07 -0.410003 -7.04047e-06)
(2636.06 -0.353798 0.00142397)
(2636.06 -0.356241 0.0014242)
(2636.06 -0.358719 0.00142442)
(2636.06 -0.361231 0.00142465)
(2636.06 -0.363779 0.00142488)
(2636.06 -0.366362 0.00142512)
(2636.06 -0.368983 0.00142535)
(2636.06 -0.371642 0.0014256)
(2636.06 -0.374339 0.00142584)
(2636.06 -0.377076 0.00142609)
(2636.06 -0.379853 0.00142634)
(2636.06 -0.382671 0.0014266)
(2636.06 -0.385531 0.00142686)
(2636.06 -0.388434 0.00142712)
(2636.06 -0.391382 0.00142739)
(2636.06 -0.394374 0.00142766)
(2636.06 -0.397413 0.00142794)
(2636.06 -0.400499 0.00142822)
(2636.06 -0.403633 0.0014285)
(2636.06 -0.406816 0.00142879)
(2636.06 -0.41005 0.00142909)
(2636.07 -0.410016 -6.81821e-06)
(2636.06 -0.353802 0.00142422)
(2636.06 -0.356246 0.00142444)
(2636.06 -0.358724 0.00142467)
(2636.06 -0.361236 0.0014249)
(2636.06 -0.363784 0.00142513)
(2636.06 -0.366368 0.00142537)
(2636.06 -0.368989 0.00142561)
(2636.06 -0.371648 0.00142585)
(2636.06 -0.374346 0.0014261)
(2636.06 -0.377083 0.00142635)
(2636.06 -0.37986 0.0014266)
(2636.06 -0.382679 0.00142686)
(2636.06 -0.385539 0.00142712)
(2636.06 -0.388443 0.00142739)
(2636.06 -0.391391 0.00142766)
(2636.06 -0.394384 0.00142793)
(2636.06 -0.397423 0.00142821)
(2636.06 -0.400509 0.0014285)
(2636.06 -0.403643 0.00142878)
(2636.06 -0.406827 0.00142907)
(2636.06 -0.410062 0.00142937)
(2636.06 -0.410027 -6.5961e-06)
(2636.06 -0.353806 0.00142446)
(2636.06 -0.35625 0.00142469)
(2636.06 -0.358728 0.00142492)
(2636.06 -0.361241 0.00142515)
(2636.06 -0.363789 0.00142538)
(2636.06 -0.366374 0.00142562)
(2636.06 -0.368995 0.00142586)
(2636.06 -0.371654 0.00142611)
(2636.06 -0.374352 0.00142636)
(2636.06 -0.377089 0.00142661)
(2636.06 -0.379867 0.00142687)
(2636.06 -0.382686 0.00142713)
(2636.06 -0.385547 0.00142739)
(2636.06 -0.388451 0.00142766)
(2636.06 -0.391399 0.00142793)
(2636.06 -0.394393 0.00142821)
(2636.06 -0.397432 0.00142849)
(2636.06 -0.400519 0.00142877)
(2636.06 -0.403654 0.00142906)
(2636.06 -0.406838 0.00142936)
(2636.06 -0.410073 0.00142965)
(2636.06 -0.410038 -6.37414e-06)
(2636.05 -0.353809 0.00142471)
(2636.05 -0.356254 0.00142494)
(2636.05 -0.358732 0.00142517)
(2636.05 -0.361245 0.0014254)
(2636.05 -0.363794 0.00142564)
(2636.05 -0.366378 0.00142588)
(2636.05 -0.369 0.00142612)
(2636.05 -0.37166 0.00142637)
(2636.05 -0.374358 0.00142662)
(2636.05 -0.377096 0.00142687)
(2636.05 -0.379874 0.00142713)
(2636.05 -0.382693 0.00142739)
(2636.05 -0.385554 0.00142766)
(2636.05 -0.388459 0.00142793)
(2636.05 -0.391407 0.0014282)
(2636.05 -0.394401 0.00142848)
(2636.05 -0.397441 0.00142876)
(2636.05 -0.400528 0.00142905)
(2636.05 -0.403663 0.00142934)
(2636.05 -0.406848 0.00142964)
(2636.05 -0.410083 0.00142994)
(2636.06 -0.410049 -6.15233e-06)
(2636.05 -0.353812 0.00142495)
(2636.05 -0.356257 0.00142518)
(2636.05 -0.358735 0.00142541)
(2636.05 -0.361249 0.00142565)
(2636.05 -0.363798 0.00142589)
(2636.05 -0.366383 0.00142613)
(2636.05 -0.369005 0.00142638)
(2636.05 -0.371665 0.00142662)
(2636.05 -0.374363 0.00142688)
(2636.05 -0.377101 0.00142713)
(2636.05 -0.379879 0.00142739)
(2636.05 -0.382699 0.00142766)
(2636.05 -0.385561 0.00142793)
(2636.05 -0.388466 0.0014282)
(2636.05 -0.391414 0.00142847)
(2636.05 -0.394409 0.00142875)
(2636.05 -0.397449 0.00142904)
(2636.05 -0.400536 0.00142933)
(2636.05 -0.403672 0.00142962)
(2636.05 -0.406857 0.00142992)
(2636.05 -0.410093 0.00143022)
(2636.05 -0.410059 -5.93067e-06)
(2636.05 -0.353815 0.0014252)
(2636.05 -0.356259 0.00142543)
(2636.05 -0.358738 0.00142566)
(2636.05 -0.361252 0.0014259)
(2636.05 -0.363801 0.00142614)
(2636.05 -0.366386 0.00142638)
(2636.05 -0.369009 0.00142663)
(2636.05 -0.371669 0.00142688)
(2636.05 -0.374368 0.00142714)
(2636.05 -0.377106 0.0014274)
(2636.05 -0.379885 0.00142766)
(2636.05 -0.382705 0.00142792)
(2636.05 -0.385567 0.00142819)
(2636.05 -0.388472 0.00142847)
(2636.05 -0.391421 0.00142875)
(2636.05 -0.394416 0.00142903)
(2636.05 -0.397456 0.00142931)
(2636.05 -0.400544 0.00142961)
(2636.05 -0.40368 0.0014299)
(2636.05 -0.406866 0.0014302)
(2636.05 -0.410102 0.00143051)
(2636.05 -0.410068 -5.70915e-06)
(2636.05 -0.353817 0.00142544)
(2636.05 -0.356262 0.00142568)
(2636.05 -0.358741 0.00142591)
(2636.05 -0.361255 0.00142615)
(2636.05 -0.363804 0.00142639)
(2636.05 -0.36639 0.00142664)
(2636.05 -0.369012 0.00142689)
(2636.05 -0.371673 0.00142714)
(2636.05 -0.374372 0.0014274)
(2636.05 -0.377111 0.00142766)
(2636.05 -0.37989 0.00142792)
(2636.05 -0.38271 0.00142819)
(2636.05 -0.385572 0.00142846)
(2636.05 -0.388478 0.00142874)
(2636.05 -0.391427 0.00142902)
(2636.05 -0.394422 0.0014293)
(2636.05 -0.397463 0.00142959)
(2636.05 -0.400552 0.00142988)
(2636.05 -0.403688 0.00143018)
(2636.05 -0.406874 0.00143049)
(2636.05 -0.410111 0.00143079)
(2636.05 -0.410077 -5.48778e-06)
(2636.04 -0.35338 0.00142623)
(2636.04 -0.355822 0.00142647)
(2636.04 -0.358299 0.00142671)
(2636.04 -0.360811 0.00142695)
(2636.04 -0.363357 0.0014272)
(2636.04 -0.36594 0.00142745)
(2636.04 -0.36856 0.00142771)
(2636.04 -0.371218 0.00142796)
(2636.04 -0.373915 0.00142823)
(2636.04 -0.376651 0.00142849)
(2636.04 -0.379427 0.00142876)
(2636.04 -0.382244 0.00142904)
(2636.04 -0.385104 0.00142932)
(2636.04 -0.388007 0.0014296)
(2636.04 -0.390953 0.00142989)
(2636.04 -0.393945 0.00143018)
(2636.04 -0.396983 0.00143047)
(2636.04 -0.400069 0.00143077)
(2636.04 -0.403202 0.00143108)
(2636.04 -0.406385 0.00143139)
(2636.04 -0.409619 0.0014317)
(2636.05 -0.409593 -8.74551e-06)
)
;

boundaryField
{
    inlet
    {
        type            calculated;
        value           uniform (0 0 0);
    }
    outlet2
    {
        type            calculated;
        value           uniform (0 0 0);
    }
    outlet1
    {
        type            calculated;
        value           uniform (0 0 0);
    }
    wall
    {
        type            calculated;
        value           uniform (0 0 0);
    }
    symmetryBottom
    {
        type            symmetry;
    }
    symmetryZ0
    {
        type            symmetry;
    }
    symmetryZ05
    {
        type            symmetry;
    }
}


// ************************************************************************* //
