/*--------------------------------*- C++ -*----------------------------------*\
| =========                 |                                                 |
| \\      /  F ield         | OpenFOAM: The Open Source CFD Toolbox           |
|  \\    /   O peration     | Version:  2412                                  |
|   \\  /    A nd           | Website:  www.openfoam.com                      |
|    \\/     M anipulation  |                                                 |
\*---------------------------------------------------------------------------*/
FoamFile
{
    version     2.0;
    format      ascii;
    arch        "LSB;label=32;scalar=64";
    class       volVectorField;
    location    "4e-06";
    object      U;
}
// * * * * * * * * * * * * * * * * * * * * * * * * * * * * * * * * * * * * * //

dimensions      [0 0 0 0 0 0 0];

internalField   nonuniform List<vector> 
84
(
(2635.25 4.15599 4.1996e-15)
(2630.88 4.2333 -5.44444e-15)
(2631.53 4.29225 -1.10671e-14)
(2631.48 4.35547 5.85929e-15)
(2631.47 4.42043 -4.72221e-16)
(2631.45 4.48736 7.03872e-16)
(2631.44 4.55635 1.0537e-14)
(2631.52 4.55161 1.90444e-15)
(2636.59 -4.20964 4.1977e-15)
(2632.28 -4.33243 -5.22092e-15)
(2632.94 -4.38511 -1.30354e-14)
(2632.91 -4.45185 1.06402e-15)
(2632.93 -4.51982 -2.41113e-14)
(2632.93 -4.58994 4.37312e-15)
(2632.95 -4.66227 1.93738e-14)
(2633.02 -4.65665 3.92331e-15)
(2636.48 -3.93352 -1.79887e-14)
(2632.31 -4.64011 3.96807e-15)
(2632.87 -4.36202 7.20126e-15)
(2632.85 -4.45377 -5.5514e-16)
(2632.86 -4.52068 -2.47168e-16)
(2632.87 -4.59086 9.84756e-15)
(2632.88 -4.66321 -8.28086e-15)
(2632.95 -4.65759 -9.66361e-15)
(2636.43 -4.05677 -1.75629e-14)
(2632.17 -4.407 1.08235e-14)
(2632.83 -4.45274 -7.74333e-16)
(2632.8 -4.52163 -2.16799e-14)
(2632.81 -4.59178 2.07661e-14)
(2632.81 -4.66417 4.02356e-15)
(2632.89 -4.65854 -8.27827e-15)
(2636.43 -4.27725 -1.0412e-14)
(2632.1 -4.39671 -4.03287e-15)
(2632.77 -4.45485 2.85934e-16)
(2632.73 -4.52343 8.73286e-17)
(2632.74 -4.59365 -7.62988e-15)
(2632.75 -4.66609 5.91574e-15)
(2632.82 -4.66047 1.37384e-14)
(2636.35 -4.10553 -6.38934e-15)
(2632.02 -4.21515 1.19936e-14)
(2632.68 -4.27251 -8.16274e-16)
(2632.65 -4.33916 1.41657e-14)
(2632.65 -4.40746 -1.27384e-14)
(2632.66 -4.47797 1.09661e-14)
(2632.73 -4.47262 -2.34322e-14)
(2636.22 -3.30875 -1.71276e-18)
(2631.87 -3.39799 1.17574e-14)
(2632.53 -3.44266 -8.04019e-16)
(2632.5 -3.49645 -6.2671e-18)
(2632.5 -3.55143 1.19105e-14)
(2632.51 -3.60819 1.63393e-15)
(2632.58 -3.60392 1.18542e-14)
(2636.12 -2.56894 1.0288e-16)
(2631.81 -3.13492 9.36808e-17)
(2632.43 -2.90294 -4.75359e-17)
(2632.39 -2.96947 -1.05144e-16)
(2632.4 -3.01565 -2.11098e-17)
(2632.4 -3.0643 4.18163e-17)
(2632.47 -3.06068 -1.04545e-14)
(2636.02 -2.43135 2.24692e-14)
(2631.64 -2.63106 -1.88342e-15)
(2632.31 -2.66107 -2.44162e-14)
(2632.27 -2.70302 -9.01424e-15)
(2632.27 -2.74589 1.3351e-14)
(2632.34 -2.74273 -6.78134e-16)
(2636.06 -2.53385 -8.10897e-15)
(2631.77 -2.59249 6.75648e-16)
(2632.42 -2.62837 -1.15758e-14)
(2632.38 -2.66857 1.24597e-14)
(2632.39 -2.70983 2.11441e-14)
(2632.46 -2.70682 -1.60666e-15)
(2636.03 -2.73226 -1.12635e-14)
(2631.7 -2.94722 9.11865e-16)
(2632.36 -2.97338 -1.82728e-17)
(2632.32 -3.02007 2.18558e-14)
(2632.32 -3.06732 2.30006e-14)
(2632.4 -3.06387 1.13367e-15)
(2635.96 -0.281781 -6.08647e-16)
(2631.67 -3.81581 3.36166e-17)
(2632.32 -3.49669 -1.00482e-18)
(2632.28 -3.56913 1.36999e-14)
(2632.28 -3.62335 -9.69105e-16)
(2632.28 -3.68001 4.19807e-17)
(2632.36 -3.67598 -1.19712e-14)
)
;

boundaryField
{
    inlet
    {
        type            calculated;
        value           nonuniform List<vector> 0();
    }
    outlet2
    {
        type            calculated;
        value           uniform (0 0 0);
    }
    outlet1
    {
        type            calculated;
        value           uniform (0 0 0);
    }
    wall
    {
        type            calculated;
        value           uniform (0 0 0);
    }
    symmetryBottom
    {
        type            symmetry;
    }
    symmetryZ0
    {
        type            symmetry;
    }
    symmetryZ05
    {
        type            symmetry;
    }
    procBoundary0to1
    {
        type            processor;
        value           uniform (0 0 0);
    }
}


// ************************************************************************* //
