/*--------------------------------*- C++ -*----------------------------------*\
| =========                 |                                                 |
| \\      /  F ield         | OpenFOAM: The Open Source CFD Toolbox           |
|  \\    /   O peration     | Version:  2412                                  |
|   \\  /    A nd           | Website:  www.openfoam.com                      |
|    \\/     M anipulation  |                                                 |
\*---------------------------------------------------------------------------*/
FoamFile
{
    version     2.0;
    format      ascii;
    arch        "LSB;label=32;scalar=64";
    class       volScalarField;
    location    "7.5e-06";
    object      rho_dof0;
}
// * * * * * * * * * * * * * * * * * * * * * * * * * * * * * * * * * * * * * //

dimensions      [0 0 0 0 0 0 0];

internalField   nonuniform List<scalar> 
84
(
2.70818e-05
1.61579e-05
1.74896e-05
1.7384e-05
1.73922e-05
1.73936e-05
1.73955e-05
1.75463e-05
2.89495e-05
1.73012e-05
1.87395e-05
1.86462e-05
1.86744e-05
1.86962e-05
1.8719e-05
1.88785e-05
2.85587e-05
1.73685e-05
1.85759e-05
1.85127e-05
1.85359e-05
1.85555e-05
1.8576e-05
1.87345e-05
2.84205e-05
1.70804e-05
1.84874e-05
1.83919e-05
1.84162e-05
1.8434e-05
1.85917e-05
2.83783e-05
1.69439e-05
1.8353e-05
1.82553e-05
1.82773e-05
1.82927e-05
1.84495e-05
2.8177e-05
1.68205e-05
1.82178e-05
1.81187e-05
1.81384e-05
1.81515e-05
1.83074e-05
2.79747e-05
1.66989e-05
1.80829e-05
1.79826e-05
1.8e-05
1.80108e-05
1.81658e-05
2.76779e-05
1.66849e-05
1.79355e-05
1.78513e-05
1.78651e-05
1.78738e-05
1.80279e-05
2.74933e-05
1.64632e-05
1.78166e-05
1.7714e-05
1.77269e-05
1.78797e-05
2.74068e-05
1.63485e-05
1.77009e-05
1.75968e-05
1.76082e-05
1.77602e-05
2.71532e-05
1.62307e-05
1.7562e-05
1.74572e-05
1.74661e-05
1.76172e-05
2.67844e-05
1.61647e-05
1.74269e-05
1.73285e-05
1.73346e-05
1.73348e-05
1.74854e-05
)
;

boundaryField
{
    inlet
    {
        type            calculated;
        value           nonuniform List<scalar> 0();
    }
    outlet2
    {
        type            calculated;
        value           uniform 2.81085e-05;
    }
    outlet1
    {
        type            calculated;
        value           uniform 2.81085e-05;
    }
    wall
    {
        type            calculated;
        value           uniform 2.81085e-05;
    }
    symmetryBottom
    {
        type            symmetry;
    }
    symmetryZ0
    {
        type            symmetry;
    }
    symmetryZ05
    {
        type            symmetry;
    }
    procBoundary0to1
    {
        type            processor;
        value           uniform 2.81085e-05;
    }
}


// ************************************************************************* //
