/*--------------------------------*- C++ -*----------------------------------*\
| =========                 |                                                 |
| \\      /  F ield         | OpenFOAM: The Open Source CFD Toolbox           |
|  \\    /   O peration     | Version:  2412                                  |
|   \\  /    A nd           | Website:  www.openfoam.com                      |
|    \\/     M anipulation  |                                                 |
\*---------------------------------------------------------------------------*/
FoamFile
{
    version     2.0;
    format      ascii;
    arch        "LSB;label=32;scalar=64";
    class       volVectorField;
    location    "7.5e-06";
    object      rhoU_dof0;
}
// * * * * * * * * * * * * * * * * * * * * * * * * * * * * * * * * * * * * * //

dimensions      [0 0 0 0 0 0 0];

internalField   nonuniform List<vector> 
84
(
(0.0713266 0.000205963 2.13211e-19)
(0.0424076 0.000125197 -1.99268e-19)
(0.0459538 0.000137269 -3.14175e-19)
(0.0456705 0.000138405 2.0944e-19)
(0.0456919 0.000140478 -3.73721e-20)
(0.0456953 0.000142557 2.86252e-20)
(0.0456998 0.000144701 3.0049e-19)
(0.0460989 0.000145674 2.90378e-20)
(0.0763177 -0.000227876 2.10506e-19)
(0.0454546 -0.000141335 -1.99372e-19)
(0.0492877 -0.000153948 -4.18023e-19)
(0.0490368 -0.000155657 6.34256e-20)
(0.0491118 -0.00015826 -7.78248e-19)
(0.0491694 -0.000160903 2.13942e-19)
(0.0492298 -0.000163638 6.39645e-19)
(0.0496521 -0.000164665 1.11645e-19)
(0.0752793 -0.000200281 -8.22056e-19)
(0.0456368 -0.000164873 1.76084e-19)
(0.0488537 -0.000149176 2.19749e-19)
(0.0486836 -0.000154873 -3.52638e-20)
(0.0487453 -0.000157098 -1.28478e-20)
(0.0487972 -0.000159725 3.02999e-19)
(0.0488513 -0.00016242 -2.59794e-19)
(0.0492711 -0.000163442 -2.84276e-19)
(0.0749131 -0.000208629 -7.80244e-19)
(0.0448715 -0.000142687 3.66413e-19)
(0.0486205 -0.000154214 -4.97081e-20)
(0.0483641 -0.000155939 -6.9347e-19)
(0.0484286 -0.000158557 7.10309e-19)
(0.0484756 -0.000161213 1.04328e-19)
(0.0488931 -0.00016223 -2.61353e-19)
(0.0748029 -0.000227372 -4.57547e-19)
(0.04451 -0.00014009 -1.10704e-19)
(0.0482649 -0.000153275 1.67337e-20)
(0.0480026 -0.000154868 5.04731e-21)
(0.0480611 -0.000157456 -2.32712e-19)
(0.048102 -0.000160075 2.13689e-19)
(0.0485171 -0.000161087 4.44138e-19)
(0.0742686 -0.000219327 -3.05249e-19)
(0.0441833 -0.000134821 3.80553e-19)
(0.0479066 -0.000147654 -5.19965e-20)
(0.0476406 -0.000149225 4.51471e-19)
(0.047693 -0.000151767 -4.24966e-19)
(0.0477277 -0.00015434 3.56687e-19)
(0.0481404 -0.000155317 -7.43588e-19)
(0.0737283 -0.000175072 -1.28441e-22)
(0.0438584 -0.000108007 3.43159e-19)
(0.0475462 -0.000117944 -4.89889e-20)
(0.0472771 -0.000119228 2.75613e-21)
(0.0473234 -0.000121236 3.6831e-19)
(0.0473519 -0.000123273 3.49172e-20)
(0.0477621 -0.000124056 3.64323e-19)
(0.0729397 -0.000126395 8.98321e-21)
(0.0438209 -0.000111107 7.14218e-21)
(0.0471541 -9.73289e-05 -2.56793e-21)
(0.0469279 -0.00010162 -6.57749e-21)
(0.0469644 -0.000103074 -1.21174e-21)
(0.0469873 -0.000104842 3.285e-21)
(0.0473952 -0.000105505 -2.83536e-19)
(0.0724463 -0.00012093 1.12341e-18)
(0.0432287 -8.23778e-05 -1.31342e-19)
(0.0468355 -8.91789e-05 -7.64757e-19)
(0.04656 -9.01439e-05 -2.0799e-19)
(0.0465943 -9.16443e-05 4.29254e-19)
(0.0469989 -9.22329e-05 -6.72476e-20)
(0.0722239 -0.000127782 -3.9036e-19)
(0.0429374 -7.82109e-05 4.67749e-20)
(0.0465399 -8.56391e-05 -3.5151e-19)
(0.0462609 -8.64334e-05 3.99967e-19)
(0.0462912 -8.77949e-05 6.53164e-19)
(0.0466935 -8.83707e-05 -8.71541e-20)
(0.0715536 -0.000132617 -4.74222e-19)
(0.0426251 -9.07484e-05 6.23678e-20)
(0.0461718 -9.70593e-05 -3.92577e-21)
(0.0458909 -9.81734e-05 6.78753e-19)
(0.0459146 -9.97358e-05 6.74148e-19)
(0.0463146 -0.000100386 1.54553e-20)
(0.0705782 -2.33638e-05 -4.46123e-20)
(0.0424509 -0.000127617 3.92702e-21)
(0.045815 -0.000111491 -2.43462e-22)
(0.0455509 -0.000115127 4.19156e-19)
(0.0455675 -0.000116739 -5.81238e-20)
(0.0455679 -0.000118559 4.99864e-21)
(0.0459665 -0.00011934 -3.41326e-19)
)
;

boundaryField
{
    inlet
    {
        type            calculated;
        value           nonuniform List<vector> 0();
    }
    outlet2
    {
        type            calculated;
        value           uniform (0.0741049 0 0);
    }
    outlet1
    {
        type            calculated;
        value           uniform (0.0741049 0 0);
    }
    wall
    {
        type            calculated;
        value           uniform (0.0741049 0 0);
    }
    symmetryBottom
    {
        type            symmetry;
    }
    symmetryZ0
    {
        type            symmetry;
    }
    symmetryZ05
    {
        type            symmetry;
    }
    procBoundary0to1
    {
        type            processor;
        value           uniform (0.0741049 0 0);
    }
}


// ************************************************************************* //
