/*--------------------------------*- C++ -*----------------------------------*\
| =========                 |                                                 |
| \\      /  F ield         | OpenFOAM: The Open Source CFD Toolbox           |
|  \\    /   O peration     | Version:  2412                                  |
|   \\  /    A nd           | Website:  www.openfoam.com                      |
|    \\/     M anipulation  |                                                 |
\*---------------------------------------------------------------------------*/
FoamFile
{
    version     2.0;
    format      ascii;
    arch        "LSB;label=32;scalar=64";
    class       volScalarField;
    location    "7.5e-06";
    object      T;
}
// * * * * * * * * * * * * * * * * * * * * * * * * * * * * * * * * * * * * * //

dimensions      [0 0 0 0 0 0 0];

internalField   nonuniform List<scalar> 
84
(
204.56
204.598
204.771
204.826
204.902
204.979
205.059
205.049
199.969
199.909
200.012
199.995
199.997
199.997
199.997
199.997
199.94
199.911
200.01
199.995
199.997
199.997
199.996
199.997
199.981
199.904
200.013
199.995
199.997
199.997
199.997
199.979
199.91
200.021
200.002
200.005
200.004
200.005
200.559
200.547
200.646
200.633
200.638
200.641
200.641
204.034
204.149
204.284
204.334
204.401
204.469
204.46
207.072
207.704
207.694
207.828
207.953
208.083
208.064
219.804
223.402
223.353
223.818
224.274
224.198
191.698
191.503
191.484
191.325
191.182
191.202
197.846
197.923
197.961
197.912
197.878
197.884
199.764
199.004
199.171
199.135
199.123
199.108
199.111
)
;

boundaryField
{
    inlet
    {
        type            calculated;
        value           nonuniform List<scalar> 0();
    }
    outlet2
    {
        type            calculated;
        value           uniform 0;
    }
    outlet1
    {
        type            calculated;
        value           uniform 0;
    }
    wall
    {
        type            calculated;
        value           uniform 0;
    }
    symmetryBottom
    {
        type            symmetry;
    }
    symmetryZ0
    {
        type            symmetry;
    }
    symmetryZ05
    {
        type            symmetry;
    }
    procBoundary0to1
    {
        type            processor;
        value           uniform 0;
    }
}


// ************************************************************************* //
