/*--------------------------------*- C++ -*----------------------------------*\
| =========                 |                                                 |
| \\      /  F ield         | OpenFOAM: The Open Source CFD Toolbox           |
|  \\    /   O peration     | Version:  2412                                  |
|   \\  /    A nd           | Website:  www.openfoam.com                      |
|    \\/     M anipulation  |                                                 |
\*---------------------------------------------------------------------------*/
FoamFile
{
    version     2.0;
    format      ascii;
    arch        "LSB;label=32;scalar=64";
    class       volVectorField;
    location    "9.4e-06";
    object      rhoU;
}
// * * * * * * * * * * * * * * * * * * * * * * * * * * * * * * * * * * * * * //

dimensions      [0 0 0 0 0 0 0];

internalField   nonuniform List<vector> 
84
(
(0.0760978 -5.24426e-06 3.31794e-19)
(0.0383023 -3.12e-06 -1.7619e-19)
(0.0411386 -3.34843e-06 -5.01144e-19)
(0.0410093 -3.44339e-06 2.5038e-19)
(0.0410278 -3.54823e-06 -2.61626e-20)
(0.0410432 -3.65747e-06 -1.78444e-20)
(0.0410185 -3.78109e-06 4.4828e-19)
(0.0415298 -3.79588e-06 4.09289e-20)
(0.0815442 -0.000300337 3.25522e-19)
(0.0411104 -0.000156859 -1.72591e-19)
(0.04419 -0.000170064 -6.23484e-19)
(0.0440987 -0.000172294 1.42349e-19)
(0.0441667 -0.000175144 -1.09238e-18)
(0.0442327 -0.000178062 1.38792e-19)
(0.0442625 -0.000181217 8.7473e-19)
(0.0448031 -0.000182792 1.57868e-19)
(0.080431 -0.000277978 -1.46102e-18)
(0.0411923 -0.000177976 1.67561e-19)
(0.0438078 -0.000170114 3.01847e-19)
(0.0437533 -0.000174338 -2.31723e-20)
(0.0438141 -0.000177145 -6.16275e-20)
(0.0438752 -0.000180133 4.74808e-19)
(0.0438996 -0.00018336 -3.22844e-19)
(0.0444368 -0.000184947 -3.92994e-19)
(0.0795237 -0.000267315 -1.44495e-18)
(0.0405285 -0.000162327 5.08788e-19)
(0.0434966 -0.000173123 3.57327e-20)
(0.0434004 -0.000175564 -1.02462e-18)
(0.0434602 -0.000178513 9.28672e-19)
(0.0434771 -0.000181684 1.60755e-19)
(0.0440106 -0.000183262 -3.07672e-19)
(0.0796014 -0.000302793 -7.67428e-19)
(0.0401023 -0.000158101 -1.44652e-19)
(0.0430996 -0.000171705 1.21535e-20)
(0.0429951 -0.000173956 1.97913e-20)
(0.0430483 -0.000176859 -3.25076e-19)
(0.0430579 -0.00017997 1.99433e-19)
(0.0435876 -0.00018154 5.87725e-19)
(0.0789057 -0.000300863 -5.02458e-19)
(0.0397375 -0.000156647 5.40961e-19)
(0.0427034 -0.000170163 -9.2747e-20)
(0.0425937 -0.000172368 6.75711e-19)
(0.0426403 -0.000175219 -6.21289e-19)
(0.0426427 -0.000178273 5.52337e-19)
(0.0431687 -0.000179833 -9.4694e-19)
(0.0782045 -0.0002981 -4.65972e-20)
(0.0393783 -0.000155382 5.04136e-19)
(0.0423106 -0.000168619 -3.89013e-20)
(0.0421961 -0.000170794 -3.53646e-20)
(0.042236 -0.000173594 5.29786e-19)
(0.0422314 -0.000176591 3.06525e-20)
(0.0427538 -0.000178142 4.90992e-19)
(0.0772894 -0.000273274 7.1057e-21)
(0.0391996 -0.000172637 8.2612e-21)
(0.0419043 -0.000165324 -1.80582e-21)
(0.041803 -0.000169332 -6.76568e-21)
(0.0418356 -0.00017198 1.9099e-21)
(0.0418241 -0.000174925 3.23594e-20)
(0.0423429 -0.000176467 -3.96363e-19)
(0.0765103 -0.000260233 1.73469e-18)
(0.0387075 -0.000157623 -4.0261e-20)
(0.0415541 -0.000168088 -9.96517e-19)
(0.0414335 -0.000170373 -3.67656e-19)
(0.0414208 -0.000173275 5.66174e-19)
(0.0419358 -0.000174807 -3.47383e-20)
(0.0761727 -0.000294651 -5.9666e-19)
(0.0383246 -0.000153503 8.33103e-20)
(0.0411674 -0.000166686 -5.57778e-19)
(0.0410406 -0.000168788 4.93958e-19)
(0.0410213 -0.00017164 9.10393e-19)
(0.0415327 -0.000173163 -8.56873e-20)
(0.075442 -0.000274377 -7.99578e-19)
(0.0379757 -0.000153822 5.80602e-20)
(0.0407827 -0.000165069 -7.1758e-20)
(0.0406514 -0.000167226 8.52504e-19)
(0.0406255 -0.00017002 9.71342e-19)
(0.0411333 -0.000171534 1.76769e-20)
(0.0740727 -1.67078e-05 -4.15344e-20)
(0.037723 -0.000184855 3.43322e-21)
(0.0403931 -0.00015844 -4.67528e-20)
(0.0402628 -0.000163191 6.07489e-19)
(0.0402713 -0.000165613 -4.94251e-20)
(0.0402336 -0.000168344 4.28194e-20)
(0.0407381 -0.000169855 -4.93728e-19)
)
;

boundaryField
{
    inlet
    {
        type            calculated;
        value           nonuniform List<vector> 0();
    }
    outlet2
    {
        type            calculated;
        value           uniform (0 0 0);
    }
    outlet1
    {
        type            calculated;
        value           uniform (0 0 0);
    }
    wall
    {
        type            calculated;
        value           uniform (0 0 0);
    }
    symmetryBottom
    {
        type            symmetry;
    }
    symmetryZ0
    {
        type            symmetry;
    }
    symmetryZ05
    {
        type            symmetry;
    }
    procBoundary0to1
    {
        type            processor;
        value           uniform (0 0 0);
    }
}


// ************************************************************************* //
