/*--------------------------------*- C++ -*----------------------------------*\
| =========                 |                                                 |
| \\      /  F ield         | OpenFOAM: The Open Source CFD Toolbox           |
|  \\    /   O peration     | Version:  2412                                  |
|   \\  /    A nd           | Website:  www.openfoam.com                      |
|    \\/     M anipulation  |                                                 |
\*---------------------------------------------------------------------------*/
FoamFile
{
    version     2.0;
    format      ascii;
    arch        "LSB;label=32;scalar=64";
    class       volScalarField;
    location    "5e-06";
    object      rho_dof0;
}
// * * * * * * * * * * * * * * * * * * * * * * * * * * * * * * * * * * * * * //

dimensions      [0 0 0 0 0 0 0];

internalField   nonuniform List<scalar> 
84
(
2.81101e-05
9.70682e-06
1.30732e-05
2.81163e-05
9.71327e-06
1.3079e-05
2.81148e-05
9.71245e-06
1.30781e-05
2.81148e-05
9.71245e-06
1.30781e-05
2.81148e-05
9.71245e-06
1.30781e-05
2.81148e-05
9.71245e-06
1.30781e-05
2.81148e-05
9.71245e-06
1.30781e-05
2.81148e-05
9.71245e-06
1.30781e-05
2.81148e-05
9.71245e-06
1.30781e-05
2.81148e-05
9.71245e-06
1.30781e-05
2.81148e-05
9.71244e-06
1.3078e-05
2.81148e-05
9.71102e-06
1.30772e-05
2.10834e-05
2.035e-05
2.04916e-05
2.20722e-05
2.12596e-05
2.14099e-05
2.19678e-05
2.11635e-05
2.1312e-05
2.18639e-05
2.10678e-05
2.11244e-05
2.02998e-05
2.17602e-05
2.09725e-05
2.10271e-05
2.11295e-05
2.16566e-05
2.08772e-05
2.09298e-05
2.10319e-05
2.15533e-05
2.07821e-05
2.08328e-05
2.09345e-05
2.14514e-05
2.06885e-05
2.07372e-05
2.08381e-05
2.13455e-05
2.0591e-05
2.06378e-05
2.06403e-05
2.03387e-05
2.12517e-05
2.05046e-05
2.05497e-05
2.0551e-05
2.0653e-05
2.11479e-05
2.04091e-05
2.04522e-05
2.04523e-05
2.05776e-05
2.10487e-05
2.03176e-05
2.0359e-05
2.04588e-05
)
;

boundaryField
{
    inlet
    {
        type            calculated;
        value           uniform 2.81085e-05;
    }
    outlet2
    {
        type            calculated;
        value           uniform 2.81085e-05;
    }
    outlet1
    {
        type            calculated;
        value           nonuniform List<scalar> 0();
    }
    wall
    {
        type            calculated;
        value           uniform 2.81085e-05;
    }
    symmetryBottom
    {
        type            symmetry;
    }
    symmetryZ0
    {
        type            symmetry;
    }
    symmetryZ05
    {
        type            symmetry;
    }
    procBoundary1to0
    {
        type            processor;
        value           uniform 2.81085e-05;
    }
}


// ************************************************************************* //
