/*--------------------------------*- C++ -*----------------------------------*\
| =========                 |                                                 |
| \\      /  F ield         | OpenFOAM: The Open Source CFD Toolbox           |
|  \\    /   O peration     | Version:  2412                                  |
|   \\  /    A nd           | Website:  www.openfoam.com                      |
|    \\/     M anipulation  |                                                 |
\*---------------------------------------------------------------------------*/
FoamFile
{
    version     2.0;
    format      ascii;
    arch        "LSB;label=32;scalar=64";
    class       volScalarField;
    location    "5e-06";
    object      T;
}
// * * * * * * * * * * * * * * * * * * * * * * * * * * * * * * * * * * * * * //

dimensions      [0 0 0 0 0 0 0];

internalField   nonuniform List<scalar> 
84
(
200.008
199.306
200.113
199.981
199.24
200.063
199.974
199.23
200.055
199.974
199.23
200.055
199.974
199.23
200.055
199.974
199.23
200.055
199.974
199.23
200.055
199.974
199.23
200.055
199.974
199.23
200.055
199.974
199.23
200.055
199.974
199.23
200.055
199.974
199.211
200.046
203.13
202.969
202.981
200.019
199.993
199.999
200.019
199.993
199.999
200.019
199.993
199.999
200.018
200.022
199.997
200.002
200.002
200.522
200.47
200.482
200.481
202.798
202.645
202.697
202.693
204.943
204.693
204.783
204.776
213.861
213.128
213.393
213.602
198.948
194.727
194.912
194.826
194.749
194.564
198.752
198.783
198.765
198.748
198.824
199.488
199.486
199.482
199.482
)
;

boundaryField
{
    inlet
    {
        type            calculated;
        value           uniform 0;
    }
    outlet2
    {
        type            calculated;
        value           uniform 0;
    }
    outlet1
    {
        type            calculated;
        value           nonuniform List<scalar> 0();
    }
    wall
    {
        type            calculated;
        value           uniform 0;
    }
    symmetryBottom
    {
        type            symmetry;
    }
    symmetryZ0
    {
        type            symmetry;
    }
    symmetryZ05
    {
        type            symmetry;
    }
    procBoundary1to0
    {
        type            processor;
        value           uniform 0;
    }
}


// ************************************************************************* //
