/*--------------------------------*- C++ -*----------------------------------*\
| =========                 |                                                 |
| \\      /  F ield         | OpenFOAM: The Open Source CFD Toolbox           |
|  \\    /   O peration     | Version:  2412                                  |
|   \\  /    A nd           | Website:  www.openfoam.com                      |
|    \\/     M anipulation  |                                                 |
\*---------------------------------------------------------------------------*/
FoamFile
{
    version     2.0;
    format      ascii;
    arch        "LSB;label=32;scalar=64";
    class       volScalarField;
    location    "9e-06";
    object      rho;
}
// * * * * * * * * * * * * * * * * * * * * * * * * * * * * * * * * * * * * * //

dimensions      [0 0 0 0 0 0 0];

internalField   nonuniform List<scalar> 
84
(
2.88303e-05
1.50652e-05
1.60499e-05
1.60077e-05
1.60143e-05
1.602e-05
1.60117e-05
1.62e-05
3.07884e-05
1.61123e-05
1.71791e-05
1.71515e-05
1.71763e-05
1.72007e-05
1.72126e-05
1.7411e-05
3.03943e-05
1.61309e-05
1.70383e-05
1.70225e-05
1.70448e-05
1.70673e-05
1.70772e-05
1.72744e-05
3.00716e-05
1.58919e-05
1.69216e-05
1.68919e-05
1.69136e-05
1.69207e-05
1.71166e-05
3.00884e-05
1.57354e-05
1.67744e-05
1.67417e-05
1.6761e-05
1.67654e-05
1.696e-05
2.98378e-05
1.55992e-05
1.66276e-05
1.65929e-05
1.66098e-05
1.66115e-05
1.68049e-05
2.95854e-05
1.54649e-05
1.64819e-05
1.64454e-05
1.64598e-05
1.6459e-05
1.66511e-05
2.92592e-05
1.5393e-05
1.6332e-05
1.62996e-05
1.63113e-05
1.63079e-05
1.64987e-05
2.89802e-05
1.5213e-05
1.62014e-05
1.61623e-05
1.61582e-05
1.63477e-05
2.88534e-05
1.50709e-05
1.60578e-05
1.60164e-05
1.60098e-05
1.61981e-05
2.85905e-05
1.49401e-05
1.59149e-05
1.58718e-05
1.58627e-05
1.60498e-05
2.80963e-05
1.48426e-05
1.57705e-05
1.57275e-05
1.57303e-05
1.57171e-05
1.5903e-05
)
;

boundaryField
{
    inlet
    {
        type            calculated;
        value           nonuniform List<scalar> 0();
    }
    outlet2
    {
        type            calculated;
        value           uniform 0;
    }
    outlet1
    {
        type            calculated;
        value           uniform 0;
    }
    wall
    {
        type            calculated;
        value           uniform 0;
    }
    symmetryBottom
    {
        type            symmetry;
    }
    symmetryZ0
    {
        type            symmetry;
    }
    symmetryZ05
    {
        type            symmetry;
    }
    procBoundary0to1
    {
        type            processor;
        value           uniform 0;
    }
}


// ************************************************************************* //
