/*--------------------------------*- C++ -*----------------------------------*\
| =========                 |                                                 |
| \\      /  F ield         | OpenFOAM: The Open Source CFD Toolbox           |
|  \\    /   O peration     | Version:  2412                                  |
|   \\  /    A nd           | Website:  www.openfoam.com                      |
|    \\/     M anipulation  |                                                 |
\*---------------------------------------------------------------------------*/
FoamFile
{
    version     2.0;
    format      ascii;
    arch        "LSB;label=32;scalar=64";
    class       volVectorField;
    location    "9e-06";
    object      rhoU_dof0;
}
// * * * * * * * * * * * * * * * * * * * * * * * * * * * * * * * * * * * * * //

dimensions      [0 0 0 0 0 0 0];

internalField   nonuniform List<vector> 
84
(
(0.0760079 -4.78872e-06 3.19316e-19)
(0.0395414 -2.95121e-06 -1.73839e-19)
(0.0421648 -3.14861e-06 -4.85922e-19)
(0.0420515 -3.23866e-06 2.44216e-19)
(0.0420689 -3.33694e-06 -2.40489e-20)
(0.0420838 -3.43942e-06 -1.60673e-20)
(0.0420615 -3.55508e-06 4.35038e-19)
(0.0425599 -3.56729e-06 4.51669e-20)
(0.0812133 -0.000286659 3.08595e-19)
(0.0423146 -0.000154602 -1.69443e-19)
(0.0451576 -0.000166507 -6.06746e-19)
(0.0450828 -0.000168751 1.32499e-19)
(0.0451486 -0.000171531 -1.06244e-18)
(0.0452131 -0.000174381 1.33674e-19)
(0.0452442 -0.000177461 8.50091e-19)
(0.0457696 -0.000178913 1.54811e-19)
(0.0801657 -0.000266152 -1.39652e-18)
(0.0423669 -0.000174038 1.57874e-19)
(0.044785 -0.000166658 2.95139e-19)
(0.044742 -0.000170659 -2.18921e-20)
(0.044801 -0.000173409 -5.73399e-20)
(0.0448606 -0.000176323 4.5927e-19)
(0.0448864 -0.00017947 -3.12216e-19)
(0.0454086 -0.000180933 -3.85946e-19)
(0.0793081 -0.000256428 -1.38126e-18)
(0.0417331 -0.000159698 4.91411e-19)
(0.0444768 -0.000169491 3.30936e-20)
(0.0443965 -0.000171927 -9.9258e-19)
(0.0444541 -0.000174803 8.9981e-19)
(0.0444725 -0.000177898 1.5919e-19)
(0.0449913 -0.000179353 -2.99756e-19)
(0.0793561 -0.000289093 -7.35155e-19)
(0.0413188 -0.000155885 -1.44849e-19)
(0.0440876 -0.000168149 1.14943e-20)
(0.0439995 -0.000170421 1.83921e-20)
(0.0440506 -0.000173253 -3.16176e-19)
(0.0440619 -0.000176293 1.95396e-19)
(0.0445773 -0.000177739 5.75962e-19)
(0.0786912 -0.000287306 -4.80214e-19)
(0.040959 -0.000154518 5.25183e-19)
(0.0436994 -0.000166703 -8.60716e-20)
(0.0436061 -0.000168931 6.56115e-19)
(0.0436507 -0.000171715 -6.01832e-19)
(0.0436549 -0.000174701 5.32294e-19)
(0.0441669 -0.00017614 -9.21354e-19)
(0.0780216 -0.000284787 -4.31006e-20)
(0.0406042 -0.000153316 4.89809e-19)
(0.0433144 -0.000165257 -3.62732e-20)
(0.0432161 -0.000167455 -3.30382e-20)
(0.0432543 -0.000170191 5.14462e-19)
(0.0432517 -0.000173124 3.13151e-20)
(0.0437604 -0.000174555 4.80851e-19)
(0.0771556 -0.000261999 6.58201e-21)
(0.0404157 -0.000169165 7.51907e-21)
(0.0429177 -0.000162266 -1.72582e-21)
(0.0428305 -0.000166074 -6.3546e-21)
(0.0428615 -0.000168677 1.90388e-21)
(0.0428522 -0.000171561 3.00492e-20)
(0.0433575 -0.000172984 -3.87391e-19)
(0.0764148 -0.000250068 1.65369e-18)
(0.0399392 -0.000155371 -3.59347e-20)
(0.0425726 -0.000164878 -9.72327e-19)
(0.0424677 -0.00016717 -3.59206e-19)
(0.0424565 -0.000170012 5.50918e-19)
(0.0429583 -0.000171427 -3.07708e-20)
(0.0760798 -0.000281818 -5.70308e-19)
(0.0395635 -0.000151645 7.69955e-20)
(0.042193 -0.000163549 -5.43467e-19)
(0.042082 -0.000165682 4.81688e-19)
(0.0420642 -0.000168477 8.89119e-19)
(0.0425627 -0.000169884 -8.12147e-20)
(0.0753825 -0.000263131 -7.63921e-19)
(0.0392181 -0.000151843 5.32221e-20)
(0.0418154 -0.00016204 -6.68308e-20)
(0.0416997 -0.000164214 8.3387e-19)
(0.0416755 -0.000166955 9.51233e-19)
(0.0421707 -0.000168354 1.84896e-20)
(0.0740727 -1.54376e-05 -3.85658e-20)
(0.0389613 -0.000180353 3.02565e-21)
(0.0414336 -0.000155835 -4.34974e-20)
(0.0413181 -0.000160291 5.91672e-19)
(0.0413256 -0.000162686 -4.59662e-20)
(0.0412906 -0.000165369 3.97866e-20)
(0.0417826 -0.000166765 -4.848e-19)
)
;

boundaryField
{
    inlet
    {
        type            calculated;
        value           nonuniform List<vector> 0();
    }
    outlet2
    {
        type            calculated;
        value           uniform (0.0741049 0 0);
    }
    outlet1
    {
        type            calculated;
        value           uniform (0.0741049 0 0);
    }
    wall
    {
        type            calculated;
        value           uniform (0.0741049 0 0);
    }
    symmetryBottom
    {
        type            symmetry;
    }
    symmetryZ0
    {
        type            symmetry;
    }
    symmetryZ05
    {
        type            symmetry;
    }
    procBoundary0to1
    {
        type            processor;
        value           uniform (0.0741049 0 0);
    }
}


// ************************************************************************* //
