/*--------------------------------*- C++ -*----------------------------------*\
| =========                 |                                                 |
| \\      /  F ield         | OpenFOAM: The Open Source CFD Toolbox           |
|  \\    /   O peration     | Version:  2412                                  |
|   \\  /    A nd           | Website:  www.openfoam.com                      |
|    \\/     M anipulation  |                                                 |
\*---------------------------------------------------------------------------*/
FoamFile
{
    version     2.0;
    format      ascii;
    arch        "LSB;label=32;scalar=64";
    class       volVectorField;
    location    "9e-06";
    object      U;
}
// * * * * * * * * * * * * * * * * * * * * * * * * * * * * * * * * * * * * * //

dimensions      [0 0 0 0 0 0 0];

internalField   nonuniform List<vector> 
84
(
(2636.39 -0.1661 1.10757e-14)
(2624.68 -0.195895 -1.15391e-14)
(2627.11 -0.196176 -3.02757e-14)
(2626.95 -0.202318 1.52561e-14)
(2626.95 -0.208372 -1.50171e-15)
(2626.95 -0.214695 -1.00295e-15)
(2626.92 -0.22203 2.717e-14)
(2627.15 -0.220203 2.78808e-15)
(2637.79 -9.31062 1.00231e-14)
(2626.22 -9.59524 -1.05163e-14)
(2628.64 -9.69242 -3.53189e-14)
(2628.51 -9.8389 7.72524e-15)
(2628.54 -9.98648 -6.18547e-14)
(2628.56 -10.138 7.77141e-15)
(2628.55 -10.3099 4.93878e-14)
(2628.78 -10.2759 8.8916e-15)
(2637.53 -8.75664 -4.59468e-14)
(2626.45 -10.7891 9.78709e-15)
(2628.49 -9.78142 1.73221e-14)
(2628.4 -10.0255 -1.28607e-15)
(2628.43 -10.1737 -3.36406e-15)
(2628.45 -10.331 2.69093e-14)
(2628.44 -10.5094 -1.82826e-14)
(2628.66 -10.4741 -2.23421e-14)
(2637.31 -8.52727 -4.59323e-14)
(2626.06 -10.049 3.0922e-14)
(2628.41 -10.0163 1.95571e-15)
(2628.28 -10.1781 -5.87608e-14)
(2628.3 -10.3351 5.32003e-14)
(2628.29 -10.5136 9.40798e-15)
(2628.52 -10.4783 -1.75126e-14)
(2637.43 -9.60811 -2.44332e-14)
(2625.85 -9.90665 -9.20532e-15)
(2628.27 -10.0242 6.85228e-16)
(2628.13 -10.1794 1.09858e-15)
(2628.16 -10.3366 -1.88638e-14)
(2628.15 -10.5153 1.16547e-14)
(2628.37 -10.4799 3.39599e-14)
(2637.3 -9.62896 -1.60942e-14)
(2625.71 -9.90551 3.36673e-14)
(2628.13 -10.0257 -5.17644e-15)
(2627.99 -10.1809 3.95418e-14)
(2628.01 -10.3382 -3.62337e-14)
(2628 -10.5169 3.20437e-14)
(2628.23 -10.4815 -5.48267e-14)
(2637.17 -9.62594 -1.45682e-15)
(2625.57 -9.91378 3.16723e-14)
(2627.99 -10.0266 -2.20078e-15)
(2627.85 -10.1825 -2.00896e-15)
(2627.87 -10.3398 3.12556e-14)
(2627.85 -10.5185 1.90262e-15)
(2628.08 -10.4831 2.88781e-14)
(2636.97 -8.95441 2.24955e-16)
(2625.59 -10.9897 4.88473e-16)
(2627.83 -9.93546 -1.05671e-16)
(2627.71 -10.1889 -3.89863e-16)
(2627.72 -10.3411 1.16722e-16)
(2627.7 -10.5201 1.84262e-15)
(2627.93 -10.4847 -2.34801e-14)
(2636.79 -8.62893 5.70627e-14)
(2625.33 -10.213 -2.3621e-15)
(2627.71 -10.1768 -6.0015e-14)
(2627.57 -10.3432 -2.22249e-14)
(2627.56 -10.5217 3.40953e-14)
(2627.79 -10.4863 -1.88227e-15)
(2636.77 -9.76727 -1.97658e-14)
(2625.15 -10.0621 5.10887e-15)
(2627.57 -10.185 -3.38444e-14)
(2627.43 -10.3445 3.00746e-14)
(2627.41 -10.5234 5.5536e-14)
(2627.64 -10.4879 -5.01385e-15)
(2636.62 -9.20342 -2.67194e-14)
(2625.02 -10.1634 3.56236e-15)
(2627.43 -10.1816 -4.19925e-15)
(2627.28 -10.3463 5.25378e-14)
(2627.26 -10.525 5.99665e-14)
(2627.49 -10.4895 1.15202e-15)
(2636.38 -0.549452 -1.37263e-15)
(2624.96 -12.151 2.03848e-16)
(2627.28 -9.88142 -2.75815e-15)
(2627.14 -10.1918 3.76204e-14)
(2627.14 -10.3422 -2.92215e-15)
(2627.11 -10.5216 2.53142e-15)
(2627.35 -10.4864 -3.04849e-14)
)
;

boundaryField
{
    inlet
    {
        type            calculated;
        value           nonuniform List<vector> 0();
    }
    outlet2
    {
        type            calculated;
        value           uniform (0 0 0);
    }
    outlet1
    {
        type            calculated;
        value           uniform (0 0 0);
    }
    wall
    {
        type            calculated;
        value           uniform (0 0 0);
    }
    symmetryBottom
    {
        type            symmetry;
    }
    symmetryZ0
    {
        type            symmetry;
    }
    symmetryZ05
    {
        type            symmetry;
    }
    procBoundary0to1
    {
        type            processor;
        value           uniform (0 0 0);
    }
}


// ************************************************************************* //
