/*--------------------------------*- C++ -*----------------------------------*\
| =========                 |                                                 |
| \\      /  F ield         | OpenFOAM: The Open Source CFD Toolbox           |
|  \\    /   O peration     | Version:  2412                                  |
|   \\  /    A nd           | Website:  www.openfoam.com                      |
|    \\/     M anipulation  |                                                 |
\*---------------------------------------------------------------------------*/
FoamFile
{
    version     2.0;
    format      ascii;
    arch        "LSB;label=32;scalar=64";
    class       volScalarField;
    location    "8e-06";
    object      E_dof0;
}
// * * * * * * * * * * * * * * * * * * * * * * * * * * * * * * * * * * * * * //

dimensions      [0 0 0 0 0 0 0];

internalField   nonuniform List<scalar> 
84
(
99.4431
5.2704
32.1247
99.4922
5.2944
32.1536
99.4797
5.29175
32.1476
99.4797
5.29175
32.1476
99.4797
5.29175
32.1476
99.4797
5.29175
32.1476
99.4797
5.29175
32.1476
99.4797
5.29175
32.1476
99.4797
5.29175
32.1476
99.4797
5.29175
32.1476
99.4797
5.29167
32.1476
99.48
5.28504
32.1453
63.997
58.6765
59.6871
69.0356
62.9612
64.0786
68.4981
62.5038
63.6026
67.9638
62.0498
62.6807
58.5514
67.4325
61.5982
62.2137
62.6979
66.9032
61.1481
61.7485
62.2303
66.3868
60.7082
61.2939
61.7733
65.887
60.2819
60.8537
61.3267
65.4217
59.8783
60.4383
60.4233
58.8417
64.798
59.3627
59.9024
59.8803
60.3798
64.3024
58.9391
59.465
59.4392
60.1356
63.8182
58.5257
59.0384
59.5045
)
;

boundaryField
{
    inlet
    {
        type            calculated;
        value           uniform 99.4306;
    }
    outlet2
    {
        type            calculated;
        value           uniform 99.4306;
    }
    outlet1
    {
        type            calculated;
        value           nonuniform List<scalar> 0();
    }
    wall
    {
        type            calculated;
        value           uniform 99.4306;
    }
    symmetryBottom
    {
        type            symmetry;
    }
    symmetryZ0
    {
        type            symmetry;
    }
    symmetryZ05
    {
        type            symmetry;
    }
    procBoundary1to0
    {
        type            processor;
        value           uniform 99.4306;
    }
}


// ************************************************************************* //
