/*--------------------------------*- C++ -*----------------------------------*\
| =========                 |                                                 |
| \\      /  F ield         | OpenFOAM: The Open Source CFD Toolbox           |
|  \\    /   O peration     | Version:  2412                                  |
|   \\  /    A nd           | Website:  www.openfoam.com                      |
|    \\/     M anipulation  |                                                 |
\*---------------------------------------------------------------------------*/
FoamFile
{
    version     2.0;
    format      ascii;
    arch        "LSB;label=32;scalar=64";
    class       volScalarField;
    location    "8e-06";
    object      rho_dof0;
}
// * * * * * * * * * * * * * * * * * * * * * * * * * * * * * * * * * * * * * //

dimensions      [0 0 0 0 0 0 0];

internalField   nonuniform List<scalar> 
84
(
2.8112e-05
1.71403e-06
9.16483e-06
2.81259e-05
1.72108e-06
9.17307e-06
2.81224e-05
1.72029e-06
9.17138e-06
2.81224e-05
1.72029e-06
9.17138e-06
2.81224e-05
1.72029e-06
9.17138e-06
2.81224e-05
1.72029e-06
9.17138e-06
2.81224e-05
1.72029e-06
9.17138e-06
2.81224e-05
1.72029e-06
9.17138e-06
2.81224e-05
1.72029e-06
9.17138e-06
2.81224e-05
1.72029e-06
9.17138e-06
2.81224e-05
1.72027e-06
9.17137e-06
2.81225e-05
1.71837e-06
9.17071e-06
1.81877e-05
1.67057e-05
1.69864e-05
1.95864e-05
1.78975e-05
1.82074e-05
1.94358e-05
1.7769e-05
1.80737e-05
1.9286e-05
1.76414e-05
1.7815e-05
1.66567e-05
1.91371e-05
1.75145e-05
1.76838e-05
1.782e-05
1.89881e-05
1.73876e-05
1.75527e-05
1.76882e-05
1.88395e-05
1.72612e-05
1.7422e-05
1.75568e-05
1.86946e-05
1.71378e-05
1.72946e-05
1.74276e-05
1.85394e-05
1.70059e-05
1.71582e-05
1.71539e-05
1.67441e-05
1.84136e-05
1.6898e-05
1.7047e-05
1.70413e-05
1.71823e-05
1.82637e-05
1.67704e-05
1.69151e-05
1.69082e-05
1.71035e-05
1.81254e-05
1.66521e-05
1.67931e-05
1.69242e-05
)
;

boundaryField
{
    inlet
    {
        type            calculated;
        value           uniform 2.81085e-05;
    }
    outlet2
    {
        type            calculated;
        value           uniform 2.81085e-05;
    }
    outlet1
    {
        type            calculated;
        value           nonuniform List<scalar> 0();
    }
    wall
    {
        type            calculated;
        value           uniform 2.81085e-05;
    }
    symmetryBottom
    {
        type            symmetry;
    }
    symmetryZ0
    {
        type            symmetry;
    }
    symmetryZ05
    {
        type            symmetry;
    }
    procBoundary1to0
    {
        type            processor;
        value           uniform 2.81085e-05;
    }
}


// ************************************************************************* //
