/*--------------------------------*- C++ -*----------------------------------*\
| =========                 |                                                 |
| \\      /  F ield         | OpenFOAM: The Open Source CFD Toolbox           |
|  \\    /   O peration     | Version:  2412                                  |
|   \\  /    A nd           | Website:  www.openfoam.com                      |
|    \\/     M anipulation  |                                                 |
\*---------------------------------------------------------------------------*/
FoamFile
{
    version     2.0;
    format      ascii;
    arch        "LSB;label=32;scalar=64";
    class       volVectorField;
    location    "8e-06";
    object      rhoU_dof0;
}
// * * * * * * * * * * * * * * * * * * * * * * * * * * * * * * * * * * * * * //

dimensions      [0 0 0 0 0 0 0];

internalField   nonuniform List<vector> 
84
(
(0.0741141 -9.17516e-07 0)
(0.00421755 -6.82976e-07 0)
(0.0240494 -6.22811e-07 -1.09316e-19)
(0.0741507 -0.000164238 0)
(0.00423581 -2.5433e-05 0)
(0.024071 -7.12175e-05 -1.10083e-19)
(0.0741415 -0.000163366 0)
(0.00423379 -2.52586e-05 0)
(0.0240666 -7.08048e-05 1.48314e-19)
(0.0741415 -0.000163366 0)
(0.00423379 -2.52585e-05 0)
(0.0240666 -7.08047e-05 -2.12572e-19)
(0.0741415 -0.000163366 0)
(0.00423379 -2.52585e-05 0)
(0.0240666 -7.08047e-05 -3.24045e-19)
(0.0741415 -0.000163366 0)
(0.00423379 -2.52585e-05 0)
(0.0240666 -7.08047e-05 2.07654e-19)
(0.0741415 -0.000163366 0)
(0.00423379 -2.52585e-05 0)
(0.0240666 -7.08047e-05 -2.45353e-19)
(0.0741415 -0.000163366 0)
(0.00423379 -2.52585e-05 0)
(0.0240666 -7.08047e-05 -2.77217e-19)
(0.0741415 -0.000163366 0)
(0.00423379 -2.52585e-05 0)
(0.0240666 -7.08047e-05 1.10811e-19)
(0.0741415 -0.000163366 0)
(0.00423379 -2.52584e-05 0)
(0.0240666 -7.08047e-05 -2.47057e-19)
(0.0741415 -0.000163366 0)
(0.00423373 -2.52525e-05 0)
(0.0240666 -7.08025e-05 -6.42777e-19)
(0.0741417 -0.000163385 0)
(0.00422878 -2.477e-05 0)
(0.0240649 -7.0631e-05 0)
(0.0478094 0.000153643 2.07475e-20)
(0.0438743 0.000130784 1.65573e-19)
(0.0446209 0.000133992 1.7829e-20)
(0.0515425 -0.000159719 2.01056e-20)
(0.0470519 -0.000148268 1.83477e-19)
(0.0478769 -0.000150441 -6.35536e-21)
(0.0511436 -0.000158568 -2.78689e-20)
(0.0467121 -0.000147226 -8.7367e-20)
(0.0475234 -0.000149143 -2.6009e-19)
(0.0507471 -0.000157381 3.68002e-20)
(0.0463747 -0.000146196 -6.32936e-21)
(0.0468386 -0.000149664 5.73153e-22)
(0.0437729 1.50104e-05 2.11791e-19)
(0.0503527 -0.000156267 -3.38024e-20)
(0.046039 -0.000145225 1.47537e-21)
(0.0464917 -0.000148648 -2.76896e-21)
(0.0468516 -0.000149478 2.12514e-19)
(0.0499575 -0.000149941 -3.61717e-20)
(0.0457028 -0.000139907 -1.72298e-19)
(0.0461441 -0.000143188 1.83619e-20)
(0.0465023 -0.000143992 1.9637e-19)
(0.0495608 -0.000117373 4.2148e-20)
(0.045365 -0.000112049 -5.79706e-21)
(0.0457951 -0.000114396 7.58012e-22)
(0.0461515 -0.000115056 -1.57154e-21)
(0.0491758 -9.80187e-05 5.05603e-20)
(0.0450369 -9.54138e-05 -1.79913e-19)
(0.0454563 -9.72453e-05 1.99768e-19)
(0.0458077 -9.76436e-05 3.47272e-21)
(0.0487623 -8.4404e-05 -2.02229e-20)
(0.0446832 -8.37287e-05 -2.18607e-19)
(0.045091 -8.51267e-05 -2.00213e-19)
(0.0450791 -8.6378e-05 2.4741e-19)
(0.0440021 1.57444e-05 1.42632e-18)
(0.0484359 -8.06355e-05 4.39628e-20)
(0.0444097 -8.0518e-05 -2.17097e-19)
(0.0448077 -8.17366e-05 1.95255e-19)
(0.0447921 -8.28827e-05 3.02644e-19)
(0.0451656 -8.43087e-05 2.15129e-19)
(0.0480395 -9.32831e-05 1.11667e-19)
(0.0440712 -9.12056e-05 -1.04312e-20)
(0.0444581 -9.28053e-05 9.96426e-22)
(0.0444394 -9.4277e-05 -7.1874e-22)
(0.0449561 -0.00010531 -2.17975e-19)
(0.047674 -0.000113403 1.8902e-22)
(0.0437589 -0.000108228 2.13766e-19)
(0.0441359 -0.000110379 -3.26206e-20)
(0.0444824 -0.000110947 -3.08446e-19)
)
;

boundaryField
{
    inlet
    {
        type            calculated;
        value           uniform (0.0741049 0 0);
    }
    outlet2
    {
        type            calculated;
        value           uniform (0.0741049 0 0);
    }
    outlet1
    {
        type            calculated;
        value           nonuniform List<vector> 0();
    }
    wall
    {
        type            calculated;
        value           uniform (0.0741049 0 0);
    }
    symmetryBottom
    {
        type            symmetry;
    }
    symmetryZ0
    {
        type            symmetry;
    }
    symmetryZ05
    {
        type            symmetry;
    }
    procBoundary1to0
    {
        type            processor;
        value           uniform (0.0741049 0 0);
    }
}


// ************************************************************************* //
