/*--------------------------------*- C++ -*----------------------------------*\
| =========                 |                                                 |
| \\      /  F ield         | OpenFOAM: The Open Source CFD Toolbox           |
|  \\    /   O peration     | Version:  2412                                  |
|   \\  /    A nd           | Website:  www.openfoam.com                      |
|    \\/     M anipulation  |                                                 |
\*---------------------------------------------------------------------------*/
FoamFile
{
    version     2.0;
    format      ascii;
    arch        "LSB;label=32;scalar=64";
    class       volScalarField;
    location    "3.9e-06";
    object      rho;
}
// * * * * * * * * * * * * * * * * * * * * * * * * * * * * * * * * * * * * * //

dimensions      [0 0 0 0 0 0 0];

internalField   nonuniform List<scalar> 
84
(
2.78517e-05
2.14968e-05
2.18952e-05
2.18796e-05
2.18808e-05
2.18815e-05
2.18823e-05
2.19752e-05
2.88474e-05
2.22824e-05
2.27062e-05
2.27024e-05
2.27163e-05
2.27302e-05
2.27444e-05
2.28401e-05
2.86856e-05
2.22524e-05
2.2617e-05
2.26162e-05
2.26285e-05
2.2641e-05
2.26538e-05
2.27492e-05
2.8605e-05
2.21291e-05
2.25466e-05
2.25406e-05
2.25521e-05
2.25635e-05
2.26586e-05
2.85488e-05
2.20439e-05
2.24607e-05
2.24533e-05
2.24635e-05
2.24734e-05
2.25682e-05
2.84437e-05
2.19607e-05
2.23748e-05
2.23662e-05
2.23749e-05
2.23834e-05
2.24779e-05
2.83384e-05
2.1878e-05
2.22891e-05
2.22792e-05
2.22865e-05
2.22936e-05
2.23879e-05
2.82038e-05
2.18253e-05
2.22022e-05
2.21934e-05
2.21993e-05
2.22049e-05
2.22989e-05
2.81066e-05
2.17162e-05
2.2121e-05
2.21086e-05
2.21132e-05
2.22069e-05
2.80351e-05
2.16371e-05
2.20407e-05
2.20271e-05
2.20305e-05
2.2124e-05
2.79132e-05
2.15537e-05
2.19532e-05
2.19384e-05
2.19404e-05
2.20335e-05
2.77118e-05
2.1488e-05
2.18678e-05
2.18528e-05
2.18534e-05
2.18535e-05
2.19465e-05
)
;

boundaryField
{
    inlet
    {
        type            calculated;
        value           nonuniform List<scalar> 0();
    }
    outlet2
    {
        type            calculated;
        value           uniform 0;
    }
    outlet1
    {
        type            calculated;
        value           uniform 0;
    }
    wall
    {
        type            calculated;
        value           uniform 0;
    }
    symmetryBottom
    {
        type            symmetry;
    }
    symmetryZ0
    {
        type            symmetry;
    }
    symmetryZ05
    {
        type            symmetry;
    }
    procBoundary0to1
    {
        type            processor;
        value           uniform 0;
    }
}


// ************************************************************************* //
