/*--------------------------------*- C++ -*----------------------------------*\
| =========                 |                                                 |
| \\      /  F ield         | OpenFOAM: The Open Source CFD Toolbox           |
|  \\    /   O peration     | Version:  2412                                  |
|   \\  /    A nd           | Website:  www.openfoam.com                      |
|    \\/     M anipulation  |                                                 |
\*---------------------------------------------------------------------------*/
FoamFile
{
    version     2.0;
    format      ascii;
    arch        "LSB;label=32;scalar=64";
    class       volVectorField;
    location    "3.9e-06";
    object      rhoU_dof0;
}
// * * * * * * * * * * * * * * * * * * * * * * * * * * * * * * * * * * * * * //

dimensions      [0 0 0 0 0 0 0];

internalField   nonuniform List<vector> 
84
(
(0.0733973 0.000112934 1.14436e-19)
(0.0565588 8.87868e-05 -1.13431e-19)
(0.0576205 9.16939e-05 -2.37803e-19)
(0.0575784 9.29791e-05 1.24153e-19)
(0.0575813 9.4372e-05 -9.69442e-21)
(0.0575829 9.58052e-05 1.4939e-20)
(0.0575846 9.72825e-05 2.26464e-19)
(0.0578308 9.75966e-05 4.17272e-20)
(0.0760591 -0.000118409 1.18953e-19)
(0.0586563 -9.41138e-05 -1.12808e-19)
(0.0597861 -9.7081e-05 -2.90105e-19)
(0.0597755 -9.85409e-05 2.30608e-20)
(0.0598124 -0.000100107 -5.34754e-19)
(0.059849 -0.000101722 9.57244e-20)
(0.0598868 -0.00010339 4.2941e-19)
(0.0601403 -0.000103702 8.76792e-20)
(0.0756291 -0.00011019 -5.07363e-19)
(0.0585777 -0.000100455 8.51515e-20)
(0.0595496 -9.62199e-05 1.58428e-19)
(0.0595471 -9.82071e-05 -1.1952e-20)
(0.0595798 -9.97389e-05 -5.36254e-21)
(0.0596127 -0.000101343 2.19242e-19)
(0.0596466 -0.000102998 -1.82001e-19)
(0.0598994 -0.00010331 -2.16899e-19)
(0.0754153 -0.000113275 -4.94653e-19)
(0.0582503 -9.50655e-05 2.34227e-19)
(0.0593632 -9.78852e-05 -1.66032e-20)
(0.0593468 -9.93721e-05 -4.78694e-19)
(0.0593773 -0.000100965 4.56748e-19)
(0.0594074 -0.000102609 8.89733e-20)
(0.0596595 -0.00010292 -1.8212e-19)
(0.0752669 -0.000119061 -2.90369e-19)
(0.0580245 -9.44913e-05 -8.81622e-20)
(0.0591357 -9.75574e-05 6.12086e-21)
(0.0591157 -9.90263e-05 1.86791e-21)
(0.0591425 -0.000100609 -1.66469e-19)
(0.0591688 -0.000102241 1.28974e-19)
(0.0594201 -0.000102551 3.03955e-19)
(0.0749878 -0.000113821 -1.7713e-19)
(0.0578039 -9.02189e-05 2.57525e-19)
(0.0589078 -9.31756e-05 -1.73625e-20)
(0.0588843 -9.45914e-05 3.10104e-19)
(0.0589074 -9.61174e-05 -2.78872e-19)
(0.0589299 -9.76914e-05 2.39373e-19)
(0.0591805 -9.79896e-05 -5.1476e-19)
(0.0747068 -9.13974e-05 -4.64956e-23)
(0.0575829 -7.24546e-05 2.52048e-19)
(0.058679 -7.47929e-05 -1.7042e-20)
(0.0586521 -7.59264e-05 -1.73352e-22)
(0.0586715 -7.71454e-05 2.60257e-19)
(0.0586901 -7.84027e-05 3.7191e-20)
(0.0589399 -7.86434e-05 2.6086e-19)
(0.074349 -7.07606e-05 2.75794e-21)
(0.0574428 -6.6501e-05 1.92616e-21)
(0.0584479 -6.28308e-05 -1.01754e-21)
(0.058424 -6.42182e-05 -2.21865e-21)
(0.0584395 -6.52352e-05 -4.4128e-22)
(0.0584544 -6.63038e-05 8.70897e-22)
(0.0587035 -6.65078e-05 -2.28723e-19)
(0.0740901 -6.67046e-05 6.17625e-19)
(0.0571523 -5.56926e-05 -3.87053e-20)
(0.0582314 -5.73886e-05 -5.27086e-19)
(0.058198 -5.826e-05 -1.94638e-19)
(0.0582102 -5.91962e-05 2.89173e-19)
(0.0584585 -5.93806e-05 -1.34842e-20)
(0.0739026 -6.92969e-05 -2.22804e-19)
(0.0569466 -5.47163e-05 1.38257e-20)
(0.0580224 -5.65111e-05 -2.49991e-19)
(0.057986 -5.73405e-05 2.68346e-19)
(0.0579951 -5.82367e-05 4.54824e-19)
(0.0582427 -5.84204e-05 -3.38532e-20)
(0.0735805 -7.4466e-05 -3.06362e-19)
(0.0567259 -6.1928e-05 1.85666e-20)
(0.057791 -6.36575e-05 -3.56625e-22)
(0.0577511 -6.46122e-05 4.67757e-19)
(0.0577563 -6.56292e-05 4.94206e-19)
(0.0580032 -6.58356e-05 2.48352e-20)
(0.0730477 -7.44963e-06 -1.6141e-20)
(0.0565523 -7.97456e-05 6.66356e-22)
(0.0575651 -7.45925e-05 -1.97199e-23)
(0.057525 -7.60632e-05 2.92667e-19)
(0.0575265 -7.72222e-05 -2.01466e-20)
(0.0575269 -7.84306e-05 8.48367e-22)
(0.0577731 -7.86801e-05 -2.58107e-19)
)
;

boundaryField
{
    inlet
    {
        type            calculated;
        value           nonuniform List<vector> 0();
    }
    outlet2
    {
        type            calculated;
        value           uniform (0.0741049 0 0);
    }
    outlet1
    {
        type            calculated;
        value           uniform (0.0741049 0 0);
    }
    wall
    {
        type            calculated;
        value           uniform (0.0741049 0 0);
    }
    symmetryBottom
    {
        type            symmetry;
    }
    symmetryZ0
    {
        type            symmetry;
    }
    symmetryZ05
    {
        type            symmetry;
    }
    procBoundary0to1
    {
        type            processor;
        value           uniform (0.0741049 0 0);
    }
}


// ************************************************************************* //
