/*--------------------------------*- C++ -*----------------------------------*\
| =========                 |                                                 |
| \\      /  F ield         | OpenFOAM: The Open Source CFD Toolbox           |
|  \\    /   O peration     | Version:  2412                                  |
|   \\  /    A nd           | Website:  www.openfoam.com                      |
|    \\/     M anipulation  |                                                 |
\*---------------------------------------------------------------------------*/
FoamFile
{
    version     2.0;
    format      ascii;
    arch        "LSB;label=32;scalar=64";
    class       volScalarField;
    location    "7.9e-06";
    object      E;
}
// * * * * * * * * * * * * * * * * * * * * * * * * * * * * * * * * * * * * * //

dimensions      [0 0 0 0 0 0 0];

internalField   nonuniform List<scalar> 
84
(
95.2535
54.7165
59.9851
59.5382
59.5729
59.5775
59.5838
60.1392
102.331
58.8971
64.6086
64.2011
64.3106
64.3903
64.4742
65.0639
100.825
59.2105
63.9908
63.7134
63.8021
63.8741
63.9492
64.5353
100.312
58.1018
63.6824
63.2686
63.3634
63.4283
64.011
100.182
57.599
63.1898
62.7677
62.8542
62.9106
63.4897
99.428
57.1531
62.6953
62.2687
62.3468
62.3946
62.9701
98.6872
56.7222
62.2115
61.7814
61.8511
61.8906
62.4627
97.5788
56.7216
61.6768
61.3166
61.3718
61.4039
61.9726
96.9879
55.9531
61.3253
60.8891
60.9442
61.5083
96.4482
55.4032
60.7521
60.3096
60.3557
60.9154
95.5486
55.0099
60.2764
59.8327
59.8703
60.4267
94.1904
54.7913
59.7881
59.3717
59.3992
59.3994
59.9541
)
;

boundaryField
{
    inlet
    {
        type            calculated;
        value           nonuniform List<scalar> 0();
    }
    outlet2
    {
        type            calculated;
        value           uniform 0;
    }
    outlet1
    {
        type            calculated;
        value           uniform 0;
    }
    wall
    {
        type            calculated;
        value           uniform 0;
    }
    symmetryBottom
    {
        type            symmetry;
    }
    symmetryZ0
    {
        type            symmetry;
    }
    symmetryZ05
    {
        type            symmetry;
    }
    procBoundary0to1
    {
        type            processor;
        value           uniform 0;
    }
}


// ************************************************************************* //
