/*--------------------------------*- C++ -*----------------------------------*\
| =========                 |                                                 |
| \\      /  F ield         | OpenFOAM: The Open Source CFD Toolbox           |
|  \\    /   O peration     | Version:  2412                                  |
|   \\  /    A nd           | Website:  www.openfoam.com                      |
|    \\/     M anipulation  |                                                 |
\*---------------------------------------------------------------------------*/
FoamFile
{
    version     2.0;
    format      ascii;
    arch        "LSB;label=32;scalar=64";
    class       volScalarField;
    location    "3.3e-06";
    object      rho_dof0;
}
// * * * * * * * * * * * * * * * * * * * * * * * * * * * * * * * * * * * * * //

dimensions      [0 0 0 0 0 0 0];

internalField   nonuniform List<scalar> 
84
(
2.81092e-05
1.51596e-05
1.67446e-05
2.81122e-05
1.51641e-05
1.67486e-05
2.81114e-05
1.51636e-05
1.67481e-05
2.81114e-05
1.51636e-05
1.67481e-05
2.81114e-05
1.51636e-05
1.67481e-05
2.81114e-05
1.51636e-05
1.67481e-05
2.81114e-05
1.51636e-05
1.67481e-05
2.81114e-05
1.51636e-05
1.67481e-05
2.81114e-05
1.51636e-05
1.67481e-05
2.81114e-05
1.51636e-05
1.67481e-05
2.81114e-05
1.51636e-05
1.67481e-05
2.81115e-05
1.51625e-05
1.67473e-05
2.30833e-05
2.27222e-05
2.28069e-05
2.37852e-05
2.33927e-05
2.34804e-05
2.37119e-05
2.33227e-05
2.34097e-05
2.36389e-05
2.32529e-05
2.32749e-05
2.26875e-05
2.3566e-05
2.31832e-05
2.32041e-05
2.32777e-05
2.34931e-05
2.31136e-05
2.31333e-05
2.32068e-05
2.34204e-05
2.30441e-05
2.30627e-05
2.3136e-05
2.33484e-05
2.29753e-05
2.29928e-05
2.30657e-05
2.32746e-05
2.29048e-05
2.2921e-05
2.29238e-05
2.27056e-05
2.32062e-05
2.28395e-05
2.28546e-05
2.28564e-05
2.29298e-05
2.31333e-05
2.27698e-05
2.27838e-05
2.27847e-05
2.28684e-05
2.30624e-05
2.27019e-05
2.27148e-05
2.27873e-05
)
;

boundaryField
{
    inlet
    {
        type            calculated;
        value           uniform 2.81085e-05;
    }
    outlet2
    {
        type            calculated;
        value           uniform 2.81085e-05;
    }
    outlet1
    {
        type            calculated;
        value           nonuniform List<scalar> 0();
    }
    wall
    {
        type            calculated;
        value           uniform 2.81085e-05;
    }
    symmetryBottom
    {
        type            symmetry;
    }
    symmetryZ0
    {
        type            symmetry;
    }
    symmetryZ05
    {
        type            symmetry;
    }
    procBoundary1to0
    {
        type            processor;
        value           uniform 2.81085e-05;
    }
}


// ************************************************************************* //
