/*--------------------------------*- C++ -*----------------------------------*\
| =========                 |                                                 |
| \\      /  F ield         | OpenFOAM: The Open Source CFD Toolbox           |
|  \\    /   O peration     | Version:  2412                                  |
|   \\  /    A nd           | Website:  www.openfoam.com                      |
|    \\/     M anipulation  |                                                 |
\*---------------------------------------------------------------------------*/
FoamFile
{
    version     2.0;
    format      ascii;
    arch        "LSB;label=32;scalar=64";
    class       volVectorField;
    location    "3.3e-06";
    object      rhoU;
}
// * * * * * * * * * * * * * * * * * * * * * * * * * * * * * * * * * * * * * //

dimensions      [0 0 0 0 0 0 0];

internalField   nonuniform List<vector> 
84
(
(0.0741068 -1.88136e-07 0)
(0.0397869 -4.05314e-07 0)
(0.0440114 -3.44558e-07 -9.68017e-20)
(0.0741146 -8.12555e-05 0)
(0.0397986 -5.15548e-05 0)
(0.0440219 -5.55747e-05 -9.36776e-20)
(0.0741126 -8.10617e-05 0)
(0.0397972 -5.1426e-05 0)
(0.0440204 -5.5437e-05 1.23341e-19)
(0.0741126 -8.10617e-05 0)
(0.0397972 -5.1426e-05 0)
(0.0440204 -5.5437e-05 -1.60847e-19)
(0.0741126 -8.10617e-05 0)
(0.0397972 -5.1426e-05 0)
(0.0440204 -5.5437e-05 -2.73239e-19)
(0.0741126 -8.10617e-05 0)
(0.0397972 -5.1426e-05 0)
(0.0440204 -5.5437e-05 1.5769e-19)
(0.0741126 -8.10617e-05 0)
(0.0397972 -5.1426e-05 0)
(0.0440204 -5.5437e-05 -2.04563e-19)
(0.0741126 -8.10617e-05 0)
(0.0397972 -5.1426e-05 0)
(0.0440204 -5.5437e-05 -2.34208e-19)
(0.0741126 -8.10617e-05 0)
(0.0397972 -5.1426e-05 0)
(0.0440204 -5.5437e-05 9.36708e-20)
(0.0741126 -8.10617e-05 0)
(0.0397972 -5.1426e-05 0)
(0.0440204 -5.5437e-05 -2.04581e-19)
(0.0741126 -8.10618e-05 0)
(0.0397972 -5.14247e-05 0)
(0.0440204 -5.5436e-05 -4.9341e-19)
(0.0741127 -8.10729e-05 0)
(0.0397945 -5.11541e-05 0)
(0.0440184 -5.52349e-05 0)
(0.0607745 7.98784e-05 5.18487e-21)
(0.0598129 7.62857e-05 8.55577e-20)
(0.0600377 7.66342e-05 8.56423e-21)
(0.0626495 -8.00414e-05 4.98584e-21)
(0.0616037 -7.99089e-05 9.0846e-20)
(0.0618366 -8.01306e-05 -1.32568e-21)
(0.0624554 -7.98154e-05 -7.5269e-21)
(0.0614182 -7.96839e-05 -4.23063e-20)
(0.0616493 -7.98605e-05 -1.84493e-19)
(0.0622618 -7.95847e-05 9.67453e-21)
(0.0612333 -7.94596e-05 -1.73491e-21)
(0.0612922 -8.06587e-05 7.48197e-23)
(0.0597357 3.08114e-06 1.33827e-19)
(0.0620686 -7.93665e-05 -3.00321e-20)
(0.0610487 -7.9247e-05 2.32304e-22)
(0.0611045 -8.04396e-05 -1.39139e-21)
(0.0612996 -8.06216e-05 1.3787e-19)
(0.0618752 -7.54838e-05 -9.46723e-21)
(0.0608639 -7.55462e-05 -9.06643e-20)
(0.0609166 -7.66848e-05 2.19492e-21)
(0.0611113 -7.68596e-05 9.06633e-20)
(0.0616811 -6.00001e-05 1.12723e-20)
(0.0606784 -6.073e-05 -6.9834e-22)
(0.060728 -6.16173e-05 -3.86192e-22)
(0.0609223 -6.17591e-05 -7.37016e-22)
(0.0614897 -5.01629e-05 1.45484e-20)
(0.0604955 -5.13136e-05 -8.86683e-20)
(0.0605421 -5.20465e-05 9.7203e-20)
(0.0607353 -5.21343e-05 9.56943e-22)
(0.0612937 -4.46938e-05 -5.08528e-21)
(0.0603078 -4.60689e-05 -1.32401e-19)
(0.0603512 -4.67046e-05 -1.276e-19)
(0.0603584 -4.73862e-05 1.49819e-19)
(0.0597829 3.27485e-06 8.47235e-19)
(0.0611141 -4.42502e-05 1.22272e-20)
(0.0601373 -4.56351e-05 -1.33281e-19)
(0.0601779 -4.62497e-05 9.29442e-20)
(0.0601827 -4.69118e-05 2.16125e-19)
(0.060377 -4.71793e-05 1.2428e-19)
(0.0609213 -5.02038e-05 2.96736e-20)
(0.0599529 -5.13163e-05 -9.87947e-22)
(0.0599904 -5.20279e-05 1.93903e-22)
(0.0599927 -5.28079e-05 -1.16343e-22)
(0.0602147 -5.50226e-05 -1.37243e-19)
(0.0607338 -6.07699e-05 9.80709e-23)
(0.0597736 -6.13856e-05 1.27808e-19)
(0.0598082 -6.22597e-05 -6.76437e-21)
(0.0600001 -6.23883e-05 -2.18944e-19)
)
;

boundaryField
{
    inlet
    {
        type            calculated;
        value           uniform (0 0 0);
    }
    outlet2
    {
        type            calculated;
        value           uniform (0 0 0);
    }
    outlet1
    {
        type            calculated;
        value           nonuniform List<vector> 0();
    }
    wall
    {
        type            calculated;
        value           uniform (0 0 0);
    }
    symmetryBottom
    {
        type            symmetry;
    }
    symmetryZ0
    {
        type            symmetry;
    }
    symmetryZ05
    {
        type            symmetry;
    }
    procBoundary1to0
    {
        type            processor;
        value           uniform (0 0 0);
    }
}


// ************************************************************************* //
