/*--------------------------------*- C++ -*----------------------------------*\
| =========                 |                                                 |
| \\      /  F ield         | OpenFOAM: The Open Source CFD Toolbox           |
|  \\    /   O peration     | Version:  2412                                  |
|   \\  /    A nd           | Website:  www.openfoam.com                      |
|    \\/     M anipulation  |                                                 |
\*---------------------------------------------------------------------------*/
FoamFile
{
    version     2.0;
    format      ascii;
    arch        "LSB;label=32;scalar=64";
    class       volVectorField;
    location    "3.3e-06";
    object      U;
}
// * * * * * * * * * * * * * * * * * * * * * * * * * * * * * * * * * * * * * //

dimensions      [0 0 0 0 0 0 0];

internalField   nonuniform List<vector> 
84
(
(2636.39 -0.00669304 0)
(2624.53 -0.0267364 0)
(2628.39 -0.0205772 -5.78105e-15)
(2636.39 -2.8904 0)
(2624.53 -3.3998 0)
(2628.39 -3.31817 -5.59315e-15)
(2636.39 -2.88359 0)
(2624.53 -3.39142 0)
(2628.39 -3.31005 7.3645e-15)
(2636.39 -2.88359 0)
(2624.53 -3.39142 0)
(2628.39 -3.31005 -9.60391e-15)
(2636.39 -2.88359 0)
(2624.53 -3.39142 0)
(2628.39 -3.31005 -1.63146e-14)
(2636.39 -2.88359 0)
(2624.53 -3.39142 0)
(2628.39 -3.31005 9.41541e-15)
(2636.39 -2.88359 0)
(2624.53 -3.39142 0)
(2628.39 -3.31005 -1.22141e-14)
(2636.39 -2.88359 0)
(2624.53 -3.39142 0)
(2628.39 -3.31005 -1.39842e-14)
(2636.39 -2.88359 0)
(2624.53 -3.39142 0)
(2628.39 -3.31005 5.59293e-15)
(2636.39 -2.88359 0)
(2624.53 -3.39142 0)
(2628.39 -3.31005 -1.22152e-14)
(2636.39 -2.88359 0)
(2624.53 -3.39134 0)
(2628.39 -3.30999 -2.94607e-14)
(2636.39 -2.88398 0)
(2624.53 -3.37372 0)
(2628.39 -3.29814 0)
(2632.84 3.46044 2.24616e-16)
(2632.36 3.35733 3.76539e-15)
(2632.44 3.36014 3.75511e-16)
(2633.98 -3.36518 2.0962e-16)
(2633.46 -3.41598 3.88352e-15)
(2633.54 -3.41266 -5.64592e-17)
(2633.93 -3.36604 -3.17431e-16)
(2633.41 -3.41658 -1.81396e-15)
(2633.49 -3.41142 -7.88103e-15)
(2633.87 -3.36669 4.09263e-16)
(2633.36 -3.4172 -7.46105e-17)
(2633.4 -3.46548 3.21461e-18)
(2632.97 0.135807 5.89868e-15)
(2633.82 -3.36784 -1.27438e-15)
(2633.32 -3.4183 1.00204e-17)
(2633.35 -3.46661 -5.99629e-17)
(2633.4 -3.46347 5.92284e-15)
(2633.76 -3.21302 -4.02979e-16)
(2633.25 -3.26848 -3.92255e-15)
(2633.28 -3.31491 9.48814e-17)
(2633.34 -3.31194 3.90676e-15)
(2633.65 -2.56187 4.81304e-16)
(2633.14 -2.63538 -3.03044e-17)
(2633.17 -2.67173 -1.67453e-17)
(2633.22 -2.66939 -3.18558e-17)
(2633.57 -2.14845 6.231e-16)
(2633.06 -2.23342 -3.85928e-15)
(2633.09 -2.26361 4.22755e-15)
(2633.15 -2.26025 4.14878e-17)
(2633.51 -1.92028 -2.18491e-16)
(2632.98 -2.01132 -5.78047e-15)
(2633.01 -2.03763 -5.56694e-15)
(2633.01 -2.06712 6.53553e-15)
(2632.96 0.144231 3.7314e-14)
(2633.52 -1.90682 5.26892e-16)
(2633.05 -1.99808 -5.83557e-15)
(2633.07 -2.02365 4.06676e-15)
(2633.07 -2.05246 9.45576e-15)
(2633.13 -2.05756 5.42001e-15)
(2633.49 -2.1702 1.28272e-15)
(2633 -2.2537 -4.33886e-17)
(2633.03 -2.28355 8.51058e-18)
(2633.03 -2.31769 -5.10622e-18)
(2633.09 -2.40605 -6.00143e-15)
(2633.46 -2.63502 4.25242e-18)
(2632.98 -2.70398 5.62984e-15)
(2633 -2.74093 -2.97795e-16)
(2633.05 -2.73786 -9.6082e-15)
)
;

boundaryField
{
    inlet
    {
        type            calculated;
        value           uniform (0 0 0);
    }
    outlet2
    {
        type            calculated;
        value           uniform (0 0 0);
    }
    outlet1
    {
        type            calculated;
        value           nonuniform List<vector> 0();
    }
    wall
    {
        type            calculated;
        value           uniform (0 0 0);
    }
    symmetryBottom
    {
        type            symmetry;
    }
    symmetryZ0
    {
        type            symmetry;
    }
    symmetryZ05
    {
        type            symmetry;
    }
    procBoundary1to0
    {
        type            processor;
        value           uniform (0 0 0);
    }
}


// ************************************************************************* //
