/*--------------------------------*- C++ -*----------------------------------*\
| =========                 |                                                 |
| \\      /  F ield         | OpenFOAM: The Open Source CFD Toolbox           |
|  \\    /   O peration     | Version:  2412                                  |
|   \\  /    A nd           | Website:  www.openfoam.com                      |
|    \\/     M anipulation  |                                                 |
\*---------------------------------------------------------------------------*/
FoamFile
{
    version     2.0;
    format      ascii;
    arch        "LSB;label=32;scalar=64";
    class       volScalarField;
    location    "1e-05";
    object      rho_dof0;
}
// * * * * * * * * * * * * * * * * * * * * * * * * * * * * * * * * * * * * * //

dimensions      [0 0 0 0 0 0 0];

internalField   nonuniform List<scalar> 
84
(
3.42614e-05
1.0171e-06
4.17487e-06
3.42745e-05
1.04481e-06
3.95963e-06
3.42828e-05
1.04229e-06
3.98709e-06
3.42831e-05
1.03892e-06
4.01509e-06
3.42835e-05
1.03557e-06
4.04307e-06
3.42838e-05
1.03223e-06
4.07086e-06
3.42842e-05
1.0289e-06
4.09849e-06
3.42845e-05
1.02559e-06
4.12596e-06
3.42849e-05
1.02229e-06
4.15326e-06
3.42852e-05
1.01901e-06
4.18039e-06
3.42855e-05
1.01573e-06
4.20736e-06
3.42861e-05
1.01242e-06
4.23414e-06
1.61131e-05
1.49953e-05
1.41079e-05
1.73461e-05
1.61003e-05
1.5144e-05
1.72065e-05
1.59747e-05
1.50446e-05
1.70476e-05
1.5778e-05
1.60507e-05
1.32714e-05
1.68879e-05
1.56421e-05
1.578e-05
1.47486e-05
1.67299e-05
1.55013e-05
1.56328e-05
1.46357e-05
1.65733e-05
1.53617e-05
1.54892e-05
1.45024e-05
1.64181e-05
1.52232e-05
1.53466e-05
1.4378e-05
1.62642e-05
1.50876e-05
1.51593e-05
1.52665e-05
1.35123e-05
1.61118e-05
1.49515e-05
1.50231e-05
1.50687e-05
1.41067e-05
1.59607e-05
1.48167e-05
1.48853e-05
1.49263e-05
1.39974e-05
1.58112e-05
1.46819e-05
1.47896e-05
1.3875e-05
)
;

boundaryField
{
    inlet
    {
        type            calculated;
        value           uniform 2.81085e-05;
    }
    outlet2
    {
        type            calculated;
        value           uniform 2.81085e-05;
    }
    outlet1
    {
        type            calculated;
        value           nonuniform List<scalar> 0();
    }
    wall
    {
        type            calculated;
        value           uniform 2.81085e-05;
    }
    symmetryBottom
    {
        type            symmetry;
    }
    symmetryZ0
    {
        type            symmetry;
    }
    symmetryZ05
    {
        type            symmetry;
    }
    procBoundary1to0
    {
        type            processor;
        value           uniform 2.81085e-05;
    }
}


// ************************************************************************* //
