/*--------------------------------*- C++ -*----------------------------------*\
| =========                 |                                                 |
| \\      /  F ield         | OpenFOAM: The Open Source CFD Toolbox           |
|  \\    /   O peration     | Version:  2412                                  |
|   \\  /    A nd           | Website:  www.openfoam.com                      |
|    \\/     M anipulation  |                                                 |
\*---------------------------------------------------------------------------*/
FoamFile
{
    version     2.0;
    format      ascii;
    arch        "LSB;label=32;scalar=64";
    class       volVectorField;
    location    "1e-05";
    object      rhoU_dof0;
}
// * * * * * * * * * * * * * * * * * * * * * * * * * * * * * * * * * * * * * //

dimensions      [0 0 0 0 0 0 0];

internalField   nonuniform List<vector> 
84
(
(0.0904914 2.12939e-07 -4.42661e-21)
(0.00242442 -4.78534e-07 2.75957e-20)
(0.010844 2.36194e-07 -1.21618e-19)
(0.0905259 -0.000286018 -4.68322e-21)
(0.00249833 -1.81771e-05 2.90643e-20)
(0.0102708 -4.09831e-05 -1.27073e-19)
(0.0905478 -0.000286088 6.15193e-21)
(0.00249146 -1.82186e-05 -3.8098e-20)
(0.0103437 -4.06997e-05 1.65881e-19)
(0.0905487 -0.000286101 -8.035e-21)
(0.00248246 -1.81871e-05 4.98404e-20)
(0.0104181 -4.09698e-05 -2.19732e-19)
(0.0905497 -0.000286105 -1.42406e-20)
(0.00247348 -1.81539e-05 8.74517e-20)
(0.0104926 -4.12467e-05 -3.7648e-19)
(0.0905506 -0.000286108 7.80061e-21)
(0.00246455 -1.8121e-05 -4.80098e-20)
(0.0105665 -4.15202e-05 2.0836e-19)
(0.0905516 -0.000286111 -1.0464e-20)
(0.00245565 -1.80882e-05 6.47212e-20)
(0.01064 -4.17919e-05 -2.81606e-19)
(0.0905525 -0.000286115 -1.21429e-20)
(0.00244679 -1.80556e-05 7.51215e-20)
(0.010713 -4.2062e-05 -3.31021e-19)
(0.0905534 -0.000286118 4.51334e-21)
(0.00243797 -1.80231e-05 -2.77917e-20)
(0.0107856 -4.23306e-05 1.20504e-19)
(0.0905543 -0.000286121 -1.03543e-20)
(0.0024292 -1.79908e-05 6.4774e-20)
(0.0108578 -4.25975e-05 -2.87207e-19)
(0.0905553 -0.000286125 -2.67951e-20)
(0.00242043 -1.79583e-05 1.66715e-19)
(0.0109295 -4.28627e-05 -7.34279e-19)
(0.0905567 -0.000286388 1.11682e-23)
(0.00241158 -1.75156e-05 -1.93966e-22)
(0.0110007 -4.28268e-05 2.65571e-21)
(0.0423455 -3.4632e-06 -3.0039e-21)
(0.0393757 -3.24752e-06 2.0359e-19)
(0.0370092 -3.09112e-06 -3.35894e-20)
(0.0456149 -0.000173318 -2.46218e-21)
(0.0423032 -0.000163868 2.03608e-19)
(0.0397518 -0.000153305 -3.85676e-20)
(0.0452458 -0.000175303 -1.22017e-20)
(0.0419712 -0.000165573 -7.08207e-20)
(0.0394902 -0.000157465 -2.74003e-19)
(0.0448256 -0.000173791 2.40324e-20)
(0.0414492 -0.000162703 -3.84506e-21)
(0.042177 -0.000183836 -3.24892e-20)
(0.034798 5.62272e-05 4.06198e-19)
(0.044403 -0.000172162 -5.25926e-20)
(0.0410905 -0.000162053 2.60688e-21)
(0.0414592 -0.000166452 -3.10134e-20)
(0.0387074 -0.00015037 3.52044e-19)
(0.0439849 -0.000170575 -7.3178e-21)
(0.0407183 -0.000160638 -2.00027e-19)
(0.0410702 -0.000164521 -7.82413e-21)
(0.0384096 -0.000153128 2.39201e-19)
(0.0435706 -0.000169003 3.04402e-20)
(0.0403492 -0.000159212 -4.3977e-21)
(0.0406906 -0.000163027 -1.6343e-21)
(0.0380577 -0.000151814 1.02337e-23)
(0.0431601 -0.000167445 5.41689e-20)
(0.0399835 -0.000157802 -2.20886e-19)
(0.0403135 -0.000161451 2.12839e-19)
(0.0377294 -0.000152524 1.1835e-21)
(0.0427531 -0.000165899 1.12933e-20)
(0.0396251 -0.000156455 -2.71068e-19)
(0.0398166 -0.000158576 -2.86787e-19)
(0.0401027 -0.000178337 1.60338e-19)
(0.0354398 5.48769e-05 1.86141e-18)
(0.0423499 -0.000164369 5.69616e-20)
(0.0392655 -0.000155037 -3.07881e-19)
(0.0394568 -0.000157933 1.87476e-19)
(0.039579 -0.000161131 4.45276e-19)
(0.037013 -0.000148205 3.08245e-19)
(0.0419504 -0.000162852 8.2286e-20)
(0.0389094 -0.000153657 -5.47799e-21)
(0.0390929 -0.00015659 -4.87309e-23)
(0.0392027 -0.000157899 2.18925e-20)
(0.036725 -0.000167211 -2.41521e-19)
(0.0415548 -0.000161332 -2.45145e-20)
(0.0385533 -0.000152227 2.96115e-19)
(0.0388418 -0.000154655 1.50253e-20)
(0.036402 -0.000166403 -4.80722e-19)
)
;

boundaryField
{
    inlet
    {
        type            calculated;
        value           uniform (0.0741049 0 0);
    }
    outlet2
    {
        type            calculated;
        value           uniform (0.0741049 0 0);
    }
    outlet1
    {
        type            calculated;
        value           nonuniform List<vector> 0();
    }
    wall
    {
        type            calculated;
        value           uniform (0.0741049 0 0);
    }
    symmetryBottom
    {
        type            symmetry;
    }
    symmetryZ0
    {
        type            symmetry;
    }
    symmetryZ05
    {
        type            symmetry;
    }
    procBoundary1to0
    {
        type            processor;
        value           uniform (0.0741049 0 0);
    }
}


// ************************************************************************* //
