/*--------------------------------*- C++ -*----------------------------------*\
| =========                 |                                                 |
| \\      /  F ield         | OpenFOAM: The Open Source CFD Toolbox           |
|  \\    /   O peration     | Version:  2412                                  |
|   \\  /    A nd           | Website:  www.openfoam.com                      |
|    \\/     M anipulation  |                                                 |
\*---------------------------------------------------------------------------*/
FoamFile
{
    version     2.0;
    format      ascii;
    arch        "LSB;label=32;scalar=64";
    class       volScalarField;
    location    "1e-05";
    object      T;
}
// * * * * * * * * * * * * * * * * * * * * * * * * * * * * * * * * * * * * * //

dimensions      [0 0 0 0 0 0 0];

internalField   nonuniform List<scalar> 
84
(
200.062
103.44
196.709
200.015
107.806
198.799
200.047
107.253
198.913
200.047
106.532
198.963
200.047
105.806
199.011
200.047
105.075
199.058
200.047
104.341
199.103
200.047
103.602
199.147
200.047
102.859
199.189
200.047
102.112
199.23
200.047
101.358
199.269
200.047
100.606
199.308
203.855
203.676
203.545
200.046
199.999
199.883
200.039
199.994
199.888
200.04
199.983
199.996
199.722
200.04
199.983
200.013
199.82
200.04
199.984
200.008
199.876
200.039
199.984
200.008
199.877
200.039
199.984
200.007
199.885
200.039
199.984
199.996
199.989
199.765
200.039
199.984
199.995
200.012
199.82
200.039
199.984
199.995
200.013
199.791
200.039
199.984
200.008
199.86
)
;

boundaryField
{
    inlet
    {
        type            calculated;
        value           uniform 0;
    }
    outlet2
    {
        type            calculated;
        value           uniform 0;
    }
    outlet1
    {
        type            calculated;
        value           nonuniform List<scalar> 0();
    }
    wall
    {
        type            calculated;
        value           uniform 0;
    }
    symmetryBottom
    {
        type            symmetry;
    }
    symmetryZ0
    {
        type            symmetry;
    }
    symmetryZ05
    {
        type            symmetry;
    }
    procBoundary1to0
    {
        type            processor;
        value           uniform 0;
    }
}


// ************************************************************************* //
