/*--------------------------------*- C++ -*----------------------------------*\
| =========                 |                                                 |
| \\      /  F ield         | OpenFOAM: The Open Source CFD Toolbox           |
|  \\    /   O peration     | Version:  2412                                  |
|   \\  /    A nd           | Website:  www.openfoam.com                      |
|    \\/     M anipulation  |                                                 |
\*---------------------------------------------------------------------------*/
FoamFile
{
    version     2.0;
    format      ascii;
    arch        "LSB;label=32;scalar=64";
    class       volVectorField;
    location    "1e-05";
    object      U;
}
// * * * * * * * * * * * * * * * * * * * * * * * * * * * * * * * * * * * * * //

dimensions      [0 0 0 0 0 0 0];

internalField   nonuniform List<vector> 
84
(
(2641.21 0.00621514 -1.29201e-16)
(2383.65 -0.470487 2.71317e-14)
(2597.45 0.0565751 -2.91309e-14)
(2641.2 -8.34492 -1.36639e-16)
(2391.18 -17.3975 2.78177e-14)
(2593.87 -10.3502 -3.20921e-14)
(2641.2 -8.34494 1.79447e-16)
(2390.37 -17.4795 -3.65523e-14)
(2594.29 -10.2079 4.16045e-14)
(2641.2 -8.34525 -2.34372e-16)
(2389.45 -17.5057 4.79731e-14)
(2594.75 -10.204 -5.47266e-14)
(2641.21 -8.34527 -4.15378e-16)
(2388.53 -17.5304 8.44481e-14)
(2595.2 -10.2018 -9.31175e-14)
(2641.21 -8.34528 2.2753e-16)
(2387.6 -17.5553 -4.65109e-14)
(2595.64 -10.1994 5.11832e-14)
(2641.21 -8.34529 -3.05215e-16)
(2386.67 -17.5802 6.29033e-14)
(2596.07 -10.1969 -6.87097e-14)
(2641.21 -8.3453 -3.54181e-16)
(2385.74 -17.6051 7.32472e-14)
(2596.49 -10.1945 -8.0229e-14)
(2641.21 -8.34531 1.31642e-16)
(2384.81 -17.6301 -2.71857e-14)
(2596.91 -10.1922 2.90144e-14)
(2641.21 -8.34533 -3.02005e-16)
(2383.88 -17.6552 6.35657e-14)
(2597.31 -10.1898 -6.87033e-14)
(2641.21 -8.34535 -7.81529e-16)
(2382.94 -17.6802 1.64134e-13)
(2597.71 -10.1876 -1.74523e-13)
(2641.21 -8.3529 3.25735e-19)
(2381.99 -17.3007 -1.91586e-16)
(2598.1 -10.1147 6.27213e-16)
(2628.02 -0.214931 -1.86426e-16)
(2625.87 -0.216569 1.35769e-14)
(2623.29 -0.219105 -2.38088e-15)
(2629.69 -9.99177 -1.41944e-16)
(2627.48 -10.1779 1.26462e-14)
(2624.92 -10.1232 -2.54672e-15)
(2629.57 -10.1882 -7.09131e-16)
(2627.36 -10.3647 -4.43331e-15)
(2624.87 -10.4665 -1.82127e-14)
(2629.43 -10.1944 1.40972e-15)
(2627.03 -10.312 -2.43698e-16)
(2627.74 -11.4534 -2.02416e-15)
(2622.03 4.23671 3.0607e-14)
(2629.27 -10.1944 -3.11421e-15)
(2626.91 -10.36 1.66657e-16)
(2627.33 -10.5483 -1.96536e-15)
(2624.48 -10.1955 2.38696e-14)
(2629.12 -10.1958 -4.37408e-16)
(2626.76 -10.3628 -1.29038e-14)
(2627.17 -10.5241 -5.00493e-16)
(2624.37 -10.4626 1.63436e-14)
(2628.97 -10.1973 1.8367e-15)
(2626.62 -10.3643 -2.86278e-16)
(2627.03 -10.5252 -1.05512e-16)
(2624.23 -10.4682 7.05657e-19)
(2628.81 -10.1988 3.29934e-15)
(2626.48 -10.3659 -1.45098e-14)
(2626.88 -10.5204 1.38688e-14)
(2624.11 -10.6082 8.23133e-17)
(2628.66 -10.2002 6.94364e-16)
(2626.34 -10.3698 -1.79663e-14)
(2626.55 -10.4607 -1.89183e-14)
(2626.85 -11.6816 1.05026e-14)
(2622.78 4.06125 1.37756e-13)
(2628.5 -10.2018 3.5354e-15)
(2626.19 -10.3693 -2.0592e-14)
(2626.41 -10.5127 1.24792e-14)
(2626.57 -10.6931 2.95498e-14)
(2623.79 -10.506 2.1851e-14)
(2628.35 -10.2033 5.15552e-15)
(2626.05 -10.3705 -3.69717e-16)
(2626.27 -10.5198 -3.27375e-18)
(2626.42 -10.5786 1.46671e-15)
(2623.7 -11.9459 -1.72547e-14)
(2628.19 -10.2037 -1.55046e-15)
(2625.9 -10.3683 2.01687e-14)
(2626.28 -10.457 1.01593e-15)
(2623.56 -11.993 -3.46465e-14)
)
;

boundaryField
{
    inlet
    {
        type            calculated;
        value           uniform (0 0 0);
    }
    outlet2
    {
        type            calculated;
        value           uniform (0 0 0);
    }
    outlet1
    {
        type            calculated;
        value           nonuniform List<vector> 0();
    }
    wall
    {
        type            calculated;
        value           uniform (0 0 0);
    }
    symmetryBottom
    {
        type            symmetry;
    }
    symmetryZ0
    {
        type            symmetry;
    }
    symmetryZ05
    {
        type            symmetry;
    }
    procBoundary1to0
    {
        type            processor;
        value           uniform (0 0 0);
    }
}


// ************************************************************************* //
