/*--------------------------------*- C++ -*----------------------------------*\
| =========                 |                                                 |
| \\      /  F ield         | OpenFOAM: The Open Source CFD Toolbox           |
|  \\    /   O peration     | Version:  2412                                  |
|   \\  /    A nd           | Website:  www.openfoam.com                      |
|    \\/     M anipulation  |                                                 |
\*---------------------------------------------------------------------------*/
FoamFile
{
    version     2.0;
    format      ascii;
    arch        "LSB;label=32;scalar=64";
    class       volScalarField;
    location    "7.8e-06";
    object      E;
}
// * * * * * * * * * * * * * * * * * * * * * * * * * * * * * * * * * * * * * //

dimensions      [0 0 0 0 0 0 0];

internalField   nonuniform List<scalar> 
84
(
99.4426
6.96044
32.7423
99.4897
6.98492
32.7707
99.4778
6.98214
32.7649
99.4778
6.98214
32.7649
99.4778
6.98214
32.7649
99.4778
6.98214
32.7649
99.4778
6.98214
32.7649
99.4778
6.98214
32.7649
99.4778
6.98214
32.7649
99.4778
6.98214
32.7649
99.4778
6.98207
32.7648
99.478
6.97553
32.7624
64.6158
59.4732
60.4447
69.5684
63.7084
64.7798
69.0408
63.257
64.3108
68.5163
62.8087
63.4028
59.3423
67.9946
62.3627
62.9423
63.4212
67.475
61.9184
62.4834
62.9601
66.9679
61.484
62.0351
62.5094
66.4769
61.0629
61.6007
62.0688
66.0201
60.6647
61.1913
61.1792
59.6207
65.406
60.1538
60.661
60.6417
61.1336
64.9195
59.7357
60.2298
60.2068
60.8871
64.4432
59.3267
59.8082
60.2696
)
;

boundaryField
{
    inlet
    {
        type            calculated;
        value           uniform 0;
    }
    outlet2
    {
        type            calculated;
        value           uniform 0;
    }
    outlet1
    {
        type            calculated;
        value           nonuniform List<scalar> 0();
    }
    wall
    {
        type            calculated;
        value           uniform 0;
    }
    symmetryBottom
    {
        type            symmetry;
    }
    symmetryZ0
    {
        type            symmetry;
    }
    symmetryZ05
    {
        type            symmetry;
    }
    procBoundary1to0
    {
        type            processor;
        value           uniform 0;
    }
}


// ************************************************************************* //
