/*--------------------------------*- C++ -*----------------------------------*\
| =========                 |                                                 |
| \\      /  F ield         | OpenFOAM: The Open Source CFD Toolbox           |
|  \\    /   O peration     | Version:  2412                                  |
|   \\  /    A nd           | Website:  www.openfoam.com                      |
|    \\/     M anipulation  |                                                 |
\*---------------------------------------------------------------------------*/
FoamFile
{
    version     2.0;
    format      ascii;
    arch        "LSB;label=32;scalar=64";
    class       volScalarField;
    location    "7.8e-06";
    object      rho;
}
// * * * * * * * * * * * * * * * * * * * * * * * * * * * * * * * * * * * * * //

dimensions      [0 0 0 0 0 0 0];

internalField   nonuniform List<scalar> 
84
(
2.81119e-05
2.18958e-06
9.34205e-06
2.81252e-05
2.19674e-06
9.35016e-06
2.81218e-05
2.19592e-06
9.34851e-06
2.81218e-05
2.19592e-06
9.34851e-06
2.81218e-05
2.19592e-06
9.34851e-06
2.81218e-05
2.19592e-06
9.34851e-06
2.81218e-05
2.19592e-06
9.34851e-06
2.81218e-05
2.19592e-06
9.34851e-06
2.81218e-05
2.19592e-06
9.34851e-06
2.81218e-05
2.19592e-06
9.34851e-06
2.81218e-05
2.19589e-06
9.3485e-06
2.81219e-05
2.19402e-06
9.34782e-06
1.83614e-05
1.69293e-05
1.71992e-05
1.97362e-05
1.81072e-05
1.84043e-05
1.95883e-05
1.79803e-05
1.82726e-05
1.94413e-05
1.78544e-05
1.80178e-05
1.68789e-05
1.92951e-05
1.77291e-05
1.78885e-05
1.80231e-05
1.91488e-05
1.76038e-05
1.77592e-05
1.78932e-05
1.90029e-05
1.7479e-05
1.76303e-05
1.77637e-05
1.88605e-05
1.73571e-05
1.75046e-05
1.76361e-05
1.87083e-05
1.7227e-05
1.73702e-05
1.73667e-05
1.69627e-05
1.85842e-05
1.71201e-05
1.726e-05
1.72551e-05
1.7394e-05
1.84372e-05
1.69941e-05
1.713e-05
1.71239e-05
1.73147e-05
1.8301e-05
1.68771e-05
1.70094e-05
1.71392e-05
)
;

boundaryField
{
    inlet
    {
        type            calculated;
        value           uniform 0;
    }
    outlet2
    {
        type            calculated;
        value           uniform 0;
    }
    outlet1
    {
        type            calculated;
        value           nonuniform List<scalar> 0();
    }
    wall
    {
        type            calculated;
        value           uniform 0;
    }
    symmetryBottom
    {
        type            symmetry;
    }
    symmetryZ0
    {
        type            symmetry;
    }
    symmetryZ05
    {
        type            symmetry;
    }
    procBoundary1to0
    {
        type            processor;
        value           uniform 0;
    }
}


// ************************************************************************* //
