/*--------------------------------*- C++ -*----------------------------------*\
| =========                 |                                                 |
| \\      /  F ield         | OpenFOAM: The Open Source CFD Toolbox           |
|  \\    /   O peration     | Version:  2412                                  |
|   \\  /    A nd           | Website:  www.openfoam.com                      |
|    \\/     M anipulation  |                                                 |
\*---------------------------------------------------------------------------*/
FoamFile
{
    version     2.0;
    format      ascii;
    arch        "LSB;label=32;scalar=64";
    class       volVectorField;
    location    "7.8e-06";
    object      rhoU_dof0;
}
// * * * * * * * * * * * * * * * * * * * * * * * * * * * * * * * * * * * * * //

dimensions      [0 0 0 0 0 0 0];

internalField   nonuniform List<vector> 
84
(
(0.0741138 -8.80242e-07 0)
(0.00547426 -6.84775e-07 0)
(0.0245131 -6.15558e-07 -1.10876e-19)
(0.0741489 -0.000161332 0)
(0.00549285 -2.8079e-05 0)
(0.0245344 -7.09477e-05 -1.11643e-19)
(0.0741401 -0.000160494 0)
(0.00549074 -2.78949e-05 0)
(0.0245301 -7.05459e-05 1.49877e-19)
(0.0741401 -0.000160494 0)
(0.00549074 -2.78949e-05 0)
(0.0245301 -7.05459e-05 -2.13341e-19)
(0.0741401 -0.000160494 0)
(0.00549074 -2.78949e-05 0)
(0.0245301 -7.05459e-05 -3.24823e-19)
(0.0741401 -0.000160494 0)
(0.00549074 -2.78949e-05 0)
(0.0245301 -7.05459e-05 2.08435e-19)
(0.0741401 -0.000160494 0)
(0.00549074 -2.78949e-05 0)
(0.0245301 -7.05459e-05 -2.44561e-19)
(0.0741401 -0.000160494 0)
(0.00549074 -2.78949e-05 0)
(0.0245301 -7.05459e-05 -2.76432e-19)
(0.0741401 -0.000160494 0)
(0.00549074 -2.78949e-05 0)
(0.0245301 -7.05459e-05 1.12374e-19)
(0.0741401 -0.000160494 0)
(0.00549074 -2.78948e-05 0)
(0.0245301 -7.05458e-05 -2.46258e-19)
(0.0741401 -0.000160495 0)
(0.00549068 -2.78891e-05 0)
(0.0245301 -7.05436e-05 -6.42763e-19)
(0.0741403 -0.000160513 0)
(0.00548581 -2.74143e-05 0)
(0.0245283 -7.03666e-05 0)
(0.0482692 0.000151243 2.01571e-20)
(0.0444661 0.000129456 1.62784e-19)
(0.0451838 0.000132463 1.74948e-20)
(0.0519385 -0.000156913 1.95134e-20)
(0.0476068 -0.000146252 1.82056e-19)
(0.0483979 -0.000148275 -6.10989e-21)
(0.0515469 -0.000155812 -2.70765e-20)
(0.0472714 -0.00014525 -8.53972e-20)
(0.0480495 -0.00014703 -2.59851e-19)
(0.0511577 -0.000154677 3.56415e-20)
(0.0469383 -0.000144259 -6.06988e-21)
(0.0473752 -0.000147585 5.38265e-22)
(0.0443606 1.44029e-05 2.11805e-19)
(0.0507704 -0.000153611 -3.35044e-20)
(0.0466069 -0.000143325 1.43554e-21)
(0.047033 -0.000146608 -2.72479e-21)
(0.047389 -0.000147409 2.12226e-19)
(0.0503825 -0.000147331 -3.5043e-20)
(0.0462749 -0.000138013 -1.70899e-19)
(0.0466903 -0.000141159 1.74696e-20)
(0.0470445 -0.000141935 1.94916e-19)
(0.0499929 -0.000115395 4.08102e-20)
(0.0459414 -0.000110548 -5.47947e-21)
(0.0463461 -0.000112803 6.6766e-22)
(0.0466986 -0.00011344 -1.54067e-21)
(0.0496147 -9.63549e-05 4.90376e-20)
(0.0456173 -9.40989e-05 -1.76674e-19)
(0.0460117 -9.58618e-05 1.97183e-19)
(0.0463595 -9.62462e-05 3.35323e-21)
(0.0492093 -8.30925e-05 -1.96316e-20)
(0.0452686 -8.26544e-05 -2.17416e-19)
(0.045652 -8.40067e-05 -2.01578e-19)
(0.0456422 -8.52425e-05 2.46155e-19)
(0.0445804 1.5114e-05 1.41059e-18)
(0.0488871 -7.95166e-05 4.25862e-20)
(0.0449969 -7.95885e-05 -2.18152e-19)
(0.045371 -8.07732e-05 1.92364e-19)
(0.0453576 -8.1908e-05 3.01725e-19)
(0.0457252 -8.32696e-05 2.15095e-19)
(0.048498 -9.19102e-05 1.08155e-19)
(0.0446629 -9.01236e-05 -9.80506e-21)
(0.0450264 -9.16704e-05 9.3344e-22)
(0.0450098 -9.3122e-05 -6.86454e-22)
(0.0455145 -0.000103697 -2.16629e-19)
(0.0481384 -0.000111725 1.86044e-22)
(0.044354 -0.000106983 2.1512e-19)
(0.044708 -0.000109057 -3.1425e-20)
(0.045051 -0.000109605 -3.05759e-19)
)
;

boundaryField
{
    inlet
    {
        type            calculated;
        value           uniform (0.0741049 0 0);
    }
    outlet2
    {
        type            calculated;
        value           uniform (0.0741049 0 0);
    }
    outlet1
    {
        type            calculated;
        value           nonuniform List<vector> 0();
    }
    wall
    {
        type            calculated;
        value           uniform (0.0741049 0 0);
    }
    symmetryBottom
    {
        type            symmetry;
    }
    symmetryZ0
    {
        type            symmetry;
    }
    symmetryZ05
    {
        type            symmetry;
    }
    procBoundary1to0
    {
        type            processor;
        value           uniform (0.0741049 0 0);
    }
}


// ************************************************************************* //
