/*--------------------------------*- C++ -*----------------------------------*\
| =========                 |                                                 |
| \\      /  F ield         | OpenFOAM: The Open Source CFD Toolbox           |
|  \\    /   O peration     | Version:  2412                                  |
|   \\  /    A nd           | Website:  www.openfoam.com                      |
|    \\/     M anipulation  |                                                 |
\*---------------------------------------------------------------------------*/
FoamFile
{
    version     2.0;
    format      ascii;
    arch        "LSB;label=32;scalar=64";
    class       volScalarField;
    location    "4.8e-06";
    object      E_dof0;
}
// * * * * * * * * * * * * * * * * * * * * * * * * * * * * * * * * * * * * * //

dimensions      [0 0 0 0 0 0 0];

internalField   nonuniform List<scalar> 
84
(
97.9022
70.742
72.8713
72.7647
72.7716
72.7744
72.7775
73.1687
102.31
74.0027
76.2729
76.2135
76.274
76.3319
76.3918
76.7975
101.543
73.9494
75.8888
75.8541
75.9072
75.9591
76.0129
76.4171
101.197
73.373
75.6058
75.5378
75.5882
75.6357
76.0385
100.994
73.0159
75.2477
75.1739
75.2184
75.2599
75.6612
100.533
72.6742
74.8909
74.812
74.8506
74.886
75.2859
100.082
72.3412
74.5421
74.4582
74.4911
74.5206
74.919
99.4777
72.1741
74.1854
74.113
74.1396
74.1635
74.5605
99.1134
71.7365
73.9034
73.8108
73.8336
74.2292
98.6861
71.3074
73.464
73.365
73.3809
73.7746
98.1731
70.991
73.1248
73.0213
73.0315
73.4239
97.3108
70.7456
72.7751
72.6742
72.6786
72.6792
73.0703
)
;

boundaryField
{
    inlet
    {
        type            calculated;
        value           nonuniform List<scalar> 0();
    }
    outlet2
    {
        type            calculated;
        value           uniform 99.4306;
    }
    outlet1
    {
        type            calculated;
        value           uniform 99.4306;
    }
    wall
    {
        type            calculated;
        value           uniform 99.4306;
    }
    symmetryBottom
    {
        type            symmetry;
    }
    symmetryZ0
    {
        type            symmetry;
    }
    symmetryZ05
    {
        type            symmetry;
    }
    procBoundary0to1
    {
        type            processor;
        value           uniform 99.4306;
    }
}


// ************************************************************************* //
