/*--------------------------------*- C++ -*----------------------------------*\
| =========                 |                                                 |
| \\      /  F ield         | OpenFOAM: The Open Source CFD Toolbox           |
|  \\    /   O peration     | Version:  2412                                  |
|   \\  /    A nd           | Website:  www.openfoam.com                      |
|    \\/     M anipulation  |                                                 |
\*---------------------------------------------------------------------------*/
FoamFile
{
    version     2.0;
    format      ascii;
    arch        "LSB;label=32;scalar=64";
    class       volVectorField;
    location    "4.8e-06";
    object      rhoU_dof0;
}
// * * * * * * * * * * * * * * * * * * * * * * * * * * * * * * * * * * * * * //

dimensions      [0 0 0 0 0 0 0];

internalField   nonuniform List<vector> 
84
(
(0.0729854 0.000137388 1.36373e-19)
(0.052841 0.000101531 -1.3813e-19)
(0.0544114 0.000105942 -2.6404e-19)
(0.0543333 0.000107344 1.5033e-19)
(0.0543384 0.000108946 -1.53405e-20)
(0.0543406 0.000110591 1.82346e-20)
(0.0543429 0.000112286 2.49916e-19)
(0.0546333 0.000112741 3.90749e-20)
(0.0762462 -0.000146003 1.3953e-19)
(0.0552569 -0.00010928 -1.36393e-19)
(0.056931 -0.000113798 -3.27825e-19)
(0.056888 -0.000115458 3.21061e-20)
(0.0569328 -0.000117312 -6.19582e-19)
(0.0569758 -0.000119221 1.24836e-19)
(0.0570202 -0.000121194 4.9319e-19)
(0.0573212 -0.000121655 9.92817e-20)
(0.0756787 -0.00013382 -5.85178e-19)
(0.0552159 -0.000118951 1.06312e-19)
(0.0566462 -0.000112321 1.88374e-19)
(0.0566212 -0.000114993 -1.71141e-20)
(0.0566606 -0.000116775 -7.2023e-21)
(0.0566991 -0.00011867 2.45846e-19)
(0.056739 -0.000120624 -2.17051e-19)
(0.0570389 -0.000121084 -2.3868e-19)
(0.0754227 -0.000138019 -5.67582e-19)
(0.0547894 -0.000110324 2.66756e-19)
(0.056436 -0.000114553 -2.37583e-20)
(0.0563865 -0.000116241 -5.51403e-19)
(0.0564239 -0.000118121 5.37212e-19)
(0.0564591 -0.000120058 9.80994e-20)
(0.0567579 -0.000120516 -2.17502e-19)
(0.0752709 -0.000146512 -3.49994e-19)
(0.0545244 -0.000109398 -9.68101e-20)
(0.0561702 -0.000114084 8.57158e-21)
(0.0561164 -0.000115739 2.62591e-21)
(0.0561494 -0.000117603 -2.01644e-19)
(0.0561802 -0.000119523 1.52247e-19)
(0.0564779 -0.00011998 3.44633e-19)
(0.0749271 -0.000140377 -2.10992e-19)
(0.0542689 -0.000104659 2.92832e-19)
(0.0559035 -0.00010919 -2.49129e-20)
(0.0558459 -0.000110793 3.53615e-19)
(0.0558745 -0.000112599 -3.17881e-19)
(0.0559008 -0.000114459 2.72574e-19)
(0.0561974 -0.000114899 -5.93867e-19)
(0.0745809 -0.000112561 -6.55909e-23)
(0.0540134 -8.39834e-05 2.79538e-19)
(0.0556359 -8.75448e-05 -2.43022e-20)
(0.0555744 -8.88282e-05 2.29837e-22)
(0.0555987 -9.02676e-05 2.92401e-19)
(0.0556204 -9.17501e-05 3.97213e-20)
(0.0559159 -9.21041e-05 2.90728e-19)
(0.0741218 -8.55619e-05 4.12978e-21)
(0.0538798 -7.90681e-05 2.94784e-21)
(0.0553621 -7.33402e-05 -1.32067e-21)
(0.055309 -7.52445e-05 -3.18285e-21)
(0.0553283 -7.64266e-05 -6.69574e-22)
(0.0553457 -7.76908e-05 1.37288e-21)
(0.0556401 -7.79906e-05 -2.48604e-19)
(0.0738034 -8.09716e-05 7.41182e-19)
(0.0535158 -6.43914e-05 -5.72401e-20)
(0.0551112 -6.69246e-05 -6.12081e-19)
(0.0550425 -6.79048e-05 -2.09611e-19)
(0.0550582 -6.90023e-05 3.30219e-19)
(0.0553515 -6.92719e-05 -2.6863e-20)
(0.0735963 -8.45395e-05 -2.64757e-19)
(0.0532811 -6.27816e-05 2.04964e-20)
(0.0548728 -6.54982e-05 -2.8185e-19)
(0.0548008 -6.64124e-05 3.06447e-19)
(0.054813 -6.74492e-05 5.17574e-19)
(0.0551052 -6.77166e-05 -4.71445e-20)
(0.0731899 -9.0018e-05 -3.72689e-19)
(0.0530275 -7.13876e-05 2.78217e-20)
(0.0546015 -7.3898e-05 -8.36357e-22)
(0.0545257 -7.49715e-05 5.39253e-19)
(0.0545334 -7.61522e-05 5.6058e-19)
(0.0548245 -7.6453e-05 2.47239e-20)
(0.0725418 -1.08481e-05 -2.27863e-20)
(0.0528416 -9.38834e-05 1.20201e-21)
(0.0543377 -8.62496e-05 -4.50103e-23)
(0.0542639 -8.81596e-05 3.29579e-19)
(0.0542671 -8.94868e-05 -2.86132e-20)
(0.0542676 -9.08848e-05 1.51736e-21)
(0.0545578 -9.12474e-05 -2.83302e-19)
)
;

boundaryField
{
    inlet
    {
        type            calculated;
        value           nonuniform List<vector> 0();
    }
    outlet2
    {
        type            calculated;
        value           uniform (0.0741049 0 0);
    }
    outlet1
    {
        type            calculated;
        value           uniform (0.0741049 0 0);
    }
    wall
    {
        type            calculated;
        value           uniform (0.0741049 0 0);
    }
    symmetryBottom
    {
        type            symmetry;
    }
    symmetryZ0
    {
        type            symmetry;
    }
    symmetryZ05
    {
        type            symmetry;
    }
    procBoundary0to1
    {
        type            processor;
        value           uniform (0.0741049 0 0);
    }
}


// ************************************************************************* //
