/*--------------------------------*- C++ -*----------------------------------*\
| =========                 |                                                 |
| \\      /  F ield         | OpenFOAM: The Open Source CFD Toolbox           |
|  \\    /   O peration     | Version:  2412                                  |
|   \\  /    A nd           | Website:  www.openfoam.com                      |
|    \\/     M anipulation  |                                                 |
\*---------------------------------------------------------------------------*/
FoamFile
{
    version     2.0;
    format      ascii;
    arch        "LSB;label=32;scalar=64";
    class       volVectorField;
    location    "8.5e-06";
    object      U;
}
// * * * * * * * * * * * * * * * * * * * * * * * * * * * * * * * * * * * * * //

dimensions      [0 0 0 0 0 0 0];

internalField   nonuniform List<vector> 
84
(
(2640.26 0.00516707 -9.20519e-17)
(2567.32 -0.119886 6.43849e-15)
(2606.36 0.00701215 -2.09169e-14)
(2640.26 -7.25437 -9.74763e-17)
(2567.86 -10.0838 6.76015e-15)
(2604.66 -8.77746 -2.25498e-14)
(2640.26 -7.25438 1.28118e-16)
(2567.79 -10.0946 -8.87342e-15)
(2604.86 -8.71202 2.94498e-14)
(2640.26 -7.25458 -1.67316e-16)
(2567.73 -10.0962 1.15788e-14)
(2605.07 -8.71005 -3.86217e-14)
(2640.26 -7.25458 -2.97429e-16)
(2567.66 -10.0974 2.0469e-14)
(2605.28 -8.70862 -6.61607e-14)
(2640.26 -7.25459 1.62924e-16)
(2567.59 -10.0986 -1.1208e-14)
(2605.49 -8.70707 3.66933e-14)
(2640.26 -7.25459 -2.18032e-16)
(2567.53 -10.0998 1.51108e-14)
(2605.69 -8.70554 -4.92897e-14)
(2640.26 -7.2546 -2.53091e-16)
(2567.46 -10.101 1.75302e-14)
(2605.89 -8.70403 -5.704e-14)
(2640.26 -7.2546 9.42226e-17)
(2567.39 -10.1022 -6.51449e-15)
(2606.09 -8.70255 2.08256e-14)
(2640.26 -7.2546 -2.14911e-16)
(2567.33 -10.1034 1.50677e-14)
(2606.29 -8.70108 -4.94322e-14)
(2640.26 -7.25461 -5.57247e-16)
(2567.26 -10.1046 3.89205e-14)
(2606.48 -8.69963 -1.25705e-13)
(2640.26 -7.26066 1.49063e-19)
(2567.2 -9.99719 -2.95222e-17)
(2606.67 -8.64652 2.88465e-16)
(2629.06 -0.15534 -8.70152e-17)
(2627.45 -0.157119 1.10179e-14)
(2625.81 -0.158727 -9.2574e-16)
(2630.48 -8.52011 -5.14686e-17)
(2628.82 -8.67208 1.06034e-14)
(2627.19 -8.63181 -1.0528e-15)
(2630.37 -8.66326 -5.59875e-16)
(2628.72 -8.81058 -3.7673e-15)
(2627.12 -8.85636 -1.61888e-14)
(2630.25 -8.66729 1.08042e-15)
(2628.5 -8.77713 -2.03246e-16)
(2628.94 -9.60214 -1.3726e-15)
(2625.03 2.76973 2.28987e-14)
(2630.12 -8.66775 -2.8299e-15)
(2628.38 -8.80616 9.88881e-17)
(2628.63 -8.95708 -1.37957e-15)
(2626.83 -8.71602 1.89385e-14)
(2629.99 -8.66899 -3.91211e-16)
(2628.26 -8.80806 -1.07641e-14)
(2628.5 -8.94319 -3.80503e-16)
(2626.73 -8.89907 1.3063e-14)
(2629.86 -8.67026 1.39584e-15)
(2628.14 -8.80926 -1.88016e-16)
(2628.38 -8.94425 -1.02e-16)
(2626.6 -8.90254 -1.69804e-17)
(2629.73 -8.67152 2.45409e-15)
(2628.02 -8.81052 -1.1618e-14)
(2628.25 -8.9426 1.1351e-14)
(2626.49 -8.97963 5.81329e-17)
(2629.6 -8.67275 4.63637e-16)
(2627.9 -8.81307 -1.5075e-14)
(2628.03 -8.90514 -1.57197e-14)
(2628.21 -9.77989 9.84807e-15)
(2625.49 2.68641 1.13351e-13)
(2629.46 -8.67404 2.59959e-15)
(2627.78 -8.81333 -1.68212e-14)
(2627.91 -8.93632 1.0385e-14)
(2628 -9.08388 2.49258e-14)
(2626.23 -8.95465 1.80007e-14)
(2629.33 -8.67531 3.92369e-15)
(2627.65 -8.81445 -2.30794e-16)
(2627.78 -8.94009 6.40692e-18)
(2627.87 -9.02053 1.04022e-15)
(2626.14 -9.90536 -1.45427e-14)
(2629.2 -8.67369 -1.09886e-15)
(2627.53 -8.81039 1.67667e-14)
(2627.75 -8.90501 7.11475e-16)
(2626.02 -9.8932 -2.80623e-14)
)
;

boundaryField
{
    inlet
    {
        type            calculated;
        value           uniform (0 0 0);
    }
    outlet2
    {
        type            calculated;
        value           uniform (0 0 0);
    }
    outlet1
    {
        type            calculated;
        value           nonuniform List<vector> 0();
    }
    wall
    {
        type            calculated;
        value           uniform (0 0 0);
    }
    symmetryBottom
    {
        type            symmetry;
    }
    symmetryZ0
    {
        type            symmetry;
    }
    symmetryZ05
    {
        type            symmetry;
    }
    procBoundary1to0
    {
        type            processor;
        value           uniform (0 0 0);
    }
}


// ************************************************************************* //
