/*--------------------------------*- C++ -*----------------------------------*\
| =========                 |                                                 |
| \\      /  F ield         | OpenFOAM: The Open Source CFD Toolbox           |
|  \\    /   O peration     | Version:  2412                                  |
|   \\  /    A nd           | Website:  www.openfoam.com                      |
|    \\/     M anipulation  |                                                 |
\*---------------------------------------------------------------------------*/
FoamFile
{
    version     2.0;
    format      ascii;
    arch        "LSB;label=32;scalar=64";
    class       volScalarField;
    location    "9e-06";
    object      rho_dof0;
}
// * * * * * * * * * * * * * * * * * * * * * * * * * * * * * * * * * * * * * //

dimensions      [0 0 0 0 0 0 0];

internalField   nonuniform List<scalar> 
84
(
3.32271e-05
2.68624e-06
5.27485e-06
3.3238e-05
2.70831e-06
5.09149e-06
3.32446e-05
2.70676e-06
5.11525e-06
3.32448e-05
2.70419e-06
5.13911e-06
3.32451e-05
2.70162e-06
5.16293e-06
3.32453e-05
2.69906e-06
5.18662e-06
3.32456e-05
2.69651e-06
5.21017e-06
3.32458e-05
2.69397e-06
5.2336e-06
3.3246e-05
2.69144e-06
5.25691e-06
3.32463e-05
2.68892e-06
5.28009e-06
3.32465e-05
2.6864e-06
5.30313e-06
3.32469e-05
2.68386e-06
5.32604e-06
1.69354e-05
1.59661e-05
1.5248e-05
1.80967e-05
1.70241e-05
1.62551e-05
1.79638e-05
1.69027e-05
1.61529e-05
1.78143e-05
1.67277e-05
1.69462e-05
1.44988e-05
1.76644e-05
1.65967e-05
1.67022e-05
1.58743e-05
1.75159e-05
1.6462e-05
1.65623e-05
1.57619e-05
1.73687e-05
1.63283e-05
1.64253e-05
1.56325e-05
1.72226e-05
1.61957e-05
1.62892e-05
1.55096e-05
1.70776e-05
1.60651e-05
1.61215e-05
1.62067e-05
1.46984e-05
1.69339e-05
1.59345e-05
1.59904e-05
1.60239e-05
1.52487e-05
1.67913e-05
1.5805e-05
1.58584e-05
1.5888e-05
1.51389e-05
1.66499e-05
1.56759e-05
1.57563e-05
1.50181e-05
)
;

boundaryField
{
    inlet
    {
        type            calculated;
        value           uniform 2.81085e-05;
    }
    outlet2
    {
        type            calculated;
        value           uniform 2.81085e-05;
    }
    outlet1
    {
        type            calculated;
        value           nonuniform List<scalar> 0();
    }
    wall
    {
        type            calculated;
        value           uniform 2.81085e-05;
    }
    symmetryBottom
    {
        type            symmetry;
    }
    symmetryZ0
    {
        type            symmetry;
    }
    symmetryZ05
    {
        type            symmetry;
    }
    procBoundary1to0
    {
        type            processor;
        value           uniform 2.81085e-05;
    }
}


// ************************************************************************* //
