/*--------------------------------*- C++ -*----------------------------------*\
| =========                 |                                                 |
| \\      /  F ield         | OpenFOAM: The Open Source CFD Toolbox           |
|  \\    /   O peration     | Version:  2412                                  |
|   \\  /    A nd           | Website:  www.openfoam.com                      |
|    \\/     M anipulation  |                                                 |
\*---------------------------------------------------------------------------*/
FoamFile
{
    version     2.0;
    format      ascii;
    arch        "LSB;label=32;scalar=64";
    class       volVectorField;
    location    "9e-06";
    object      rhoU;
}
// * * * * * * * * * * * * * * * * * * * * * * * * * * * * * * * * * * * * * //

dimensions      [0 0 0 0 0 0 0];

internalField   nonuniform List<vector> 
84
(
(0.0877389 1.83846e-07 -3.46191e-21)
(0.00683145 -4.42907e-07 2.4582e-20)
(0.0137337 1.00812e-07 -1.23367e-19)
(0.0877675 -0.000253334 -3.66543e-21)
(0.0068903 -3.07094e-05 2.5929e-20)
(0.0132452 -4.73561e-05 -1.29214e-19)
(0.0877849 -0.000253385 4.81726e-21)
(0.00688606 -3.07407e-05 -3.4019e-20)
(0.0133083 -4.71416e-05 1.69004e-19)
(0.0877855 -0.000253394 -6.29052e-21)
(0.00687917 -3.07199e-05 4.44102e-20)
(0.0133718 -4.73486e-05 -2.23012e-19)
(0.0877862 -0.000253396 -1.11725e-20)
(0.00687229 -3.06976e-05 7.8254e-20)
(0.0134352 -4.75594e-05 -3.8268e-19)
(0.0877868 -0.000253398 6.11911e-21)
(0.00686544 -3.06754e-05 -4.28871e-20)
(0.0134982 -4.7768e-05 2.12667e-19)
(0.0877874 -0.0002534 -8.19662e-21)
(0.00685862 -3.06533e-05 5.77947e-20)
(0.0135608 -4.79754e-05 -2.8625e-19)
(0.0877881 -0.000253402 -9.51322e-21)
(0.00685183 -3.06313e-05 6.7019e-20)
(0.0136232 -4.81818e-05 -3.3273e-19)
(0.0877887 -0.000253404 3.54004e-21)
(0.00684506 -3.06094e-05 -2.48567e-20)
(0.0136852 -4.8387e-05 1.21697e-19)
(0.0877893 -0.000253406 -8.09019e-21)
(0.00683832 -3.05876e-05 5.76334e-20)
(0.0137468 -4.85912e-05 -2.91041e-19)
(0.08779 -0.000253408 -2.09638e-20)
(0.00683158 -3.05657e-05 1.48604e-19)
(0.0138081 -4.87941e-05 -7.42763e-19)
(0.087791 -0.000253629 6.57684e-24)
(0.00682479 -3.01492e-05 -1.31263e-22)
(0.0138691 -4.86907e-05 2.00366e-21)
(0.0445181 -2.94837e-06 -1.95528e-21)
(0.0419418 -2.80776e-06 1.88063e-19)
(0.0400261 -2.7102e-06 -2.09522e-20)
(0.0475982 -0.000163081 -1.40371e-21)
(0.0447456 -0.000156192 1.91203e-19)
(0.0426936 -0.000148409 -2.4635e-20)
(0.0472467 -0.000164759 -1.09475e-20)
(0.0444249 -0.000157682 -6.60191e-20)
(0.0424241 -0.000151677 -2.76579e-19)
(0.0468509 -0.00016347 2.11637e-20)
(0.0439606 -0.000155392 -3.631e-21)
(0.0445435 -0.000173085 -2.66393e-20)
(0.038046 4.64994e-05 3.66729e-19)
(0.0464544 -0.000162101 -5.11782e-20)
(0.0436143 -0.000154749 1.98235e-21)
(0.0438965 -0.000158453 -2.60672e-20)
(0.0416872 -0.000146232 3.25902e-19)
(0.0460615 -0.000160761 -7.18038e-21)
(0.0432582 -0.000153529 -1.87622e-19)
(0.0435268 -0.000156846 -6.92828e-21)
(0.0413904 -0.000148487 2.22015e-19)
(0.0456718 -0.000159433 2.6739e-20)
(0.0429048 -0.000152303 -3.55612e-21)
(0.0431645 -0.000155566 -1.70561e-21)
(0.0410485 -0.000147332 -1.88921e-22)
(0.0452852 -0.000158115 4.69213e-20)
(0.0425542 -0.000151088 -2.04783e-19)
(0.0428046 -0.000154237 1.95795e-19)
(0.0407242 -0.000147646 1.01793e-21)
(0.0449018 -0.000156806 9.12704e-21)
(0.042209 -0.000149917 -2.57103e-19)
(0.0423598 -0.000151937 -2.70913e-19)
(0.0425872 -0.000168669 1.63801e-19)
(0.038578 4.55526e-05 1.78107e-18)
(0.0445215 -0.00015551 4.90765e-20)
(0.0418639 -0.0001487 -2.88473e-19)
(0.0420134 -0.000151298 1.75466e-19)
(0.0421032 -0.00015415 4.23293e-19)
(0.0400347 -0.000144453 2.92575e-19)
(0.0441443 -0.000154223 7.26036e-20)
(0.0415217 -0.00014751 -4.30522e-21)
(0.0416643 -0.000150123 5.99816e-23)
(0.0417439 -0.000151603 1.86452e-20)
(0.0397451 -0.000160031 -2.35466e-19)
(0.0437704 -0.000152908 -2.06524e-20)
(0.0411804 -0.000146249 2.80311e-19)
(0.0413957 -0.000148481 1.26938e-20)
(0.0394259 -0.000158813 -4.52702e-19)
)
;

boundaryField
{
    inlet
    {
        type            calculated;
        value           uniform (0 0 0);
    }
    outlet2
    {
        type            calculated;
        value           uniform (0 0 0);
    }
    outlet1
    {
        type            calculated;
        value           nonuniform List<vector> 0();
    }
    wall
    {
        type            calculated;
        value           uniform (0 0 0);
    }
    symmetryBottom
    {
        type            symmetry;
    }
    symmetryZ0
    {
        type            symmetry;
    }
    symmetryZ05
    {
        type            symmetry;
    }
    procBoundary1to0
    {
        type            processor;
        value           uniform (0 0 0);
    }
}


// ************************************************************************* //
