/*--------------------------------*- C++ -*----------------------------------*\
| =========                 |                                                 |
| \\      /  F ield         | OpenFOAM: The Open Source CFD Toolbox           |
|  \\    /   O peration     | Version:  2412                                  |
|   \\  /    A nd           | Website:  www.openfoam.com                      |
|    \\/     M anipulation  |                                                 |
\*---------------------------------------------------------------------------*/
FoamFile
{
    version     2.0;
    format      ascii;
    arch        "LSB;label=32;scalar=64";
    class       volVectorField;
    location    "9e-06";
    object      U;
}
// * * * * * * * * * * * * * * * * * * * * * * * * * * * * * * * * * * * * * //

dimensions      [0 0 0 0 0 0 0];

internalField   nonuniform List<vector> 
84
(
(2640.58 0.00553299 -1.04189e-16)
(2543.13 -0.16488 9.15107e-15)
(2603.61 0.0191118 -2.33877e-14)
(2640.58 -7.62181 -1.10278e-16)
(2544.13 -11.3389 9.57387e-15)
(2601.43 -9.30103 -2.53785e-14)
(2640.58 -7.62183 1.44904e-16)
(2544.02 -11.357 -1.25681e-14)
(2601.69 -9.21588 3.30392e-14)
(2640.58 -7.62206 -1.89218e-16)
(2543.89 -11.3601 1.64228e-14)
(2601.96 -9.21339 -4.3395e-14)
(2640.58 -7.62207 -3.36065e-16)
(2543.77 -11.3627 2.89656e-14)
(2602.23 -9.21171 -7.41207e-14)
(2640.58 -7.62207 1.84059e-16)
(2543.64 -11.3652 -1.58896e-14)
(2602.5 -9.20986 4.1003e-14)
(2640.58 -7.62208 -2.46548e-16)
(2543.52 -11.3678 2.14332e-14)
(2602.76 -9.20803 -5.49406e-14)
(2640.58 -7.62208 -2.86148e-16)
(2543.4 -11.3703 2.48774e-14)
(2603.02 -9.20623 -6.35756e-14)
(2640.58 -7.62209 1.0648e-16)
(2543.27 -11.3729 -9.23546e-15)
(2603.27 -9.20447 2.31499e-14)
(2640.58 -7.6221 -2.43341e-16)
(2543.15 -11.3754 2.14337e-14)
(2603.52 -9.20272 -5.51205e-14)
(2640.58 -7.62211 -6.30558e-16)
(2543.03 -11.3779 5.5317e-14)
(2603.77 -9.201 -1.40061e-13)
(2640.58 -7.62866 1.97818e-19)
(2542.9 -11.2335 -4.89081e-17)
(2604.01 -9.142 3.762e-16)
(2628.71 -0.174095 -1.15455e-16)
(2626.92 -0.175857 1.17789e-14)
(2625 -0.177742 -1.3741e-15)
(2630.21 -9.01164 -7.75669e-17)
(2628.37 -9.17476 1.12313e-14)
(2626.46 -9.12998 -1.51552e-15)
(2630.1 -9.17168 -6.09419e-16)
(2628.27 -9.32878 -3.90582e-15)
(2626.4 -9.39005 -1.71225e-14)
(2629.97 -9.17636 1.18802e-15)
(2628.01 -9.2895 -2.17065e-16)
(2628.53 -10.2138 -1.572e-15)
(2624.08 3.20712 2.52937e-14)
(2629.83 -9.17668 -2.89725e-15)
(2627.9 -9.32413 1.19443e-16)
(2628.19 -9.48695 -1.56071e-15)
(2626.08 -9.21189 2.05302e-14)
(2629.69 -9.178 -4.09934e-16)
(2627.77 -9.3263 -1.13973e-14)
(2628.05 -9.47005 -4.18315e-16)
(2625.98 -9.42063 1.40856e-14)
(2629.55 -9.17934 1.5395e-15)
(2627.64 -9.32757 -2.17789e-16)
(2627.92 -9.47113 -1.0384e-16)
(2625.85 -9.4247 -1.20852e-17)
(2629.41 -9.18068 2.72441e-15)
(2627.51 -9.32894 -1.26443e-14)
(2627.79 -9.46865 1.20199e-14)
(2625.73 -9.51962 6.56318e-17)
(2629.28 -9.18198 5.34444e-16)
(2627.38 -9.33189 -1.60039e-14)
(2627.54 -9.42451 -1.68045e-14)
(2627.75 -10.4073 1.0107e-14)
(2624.63 3.09915 1.21174e-13)
(2629.14 -9.18336 2.89812e-15)
(2627.25 -9.33195 -1.81037e-14)
(2627.41 -9.46182 1.09732e-14)
(2627.52 -9.62 2.64163e-14)
(2625.45 -9.47311 1.91869e-14)
(2629 -9.18471 4.32389e-15)
(2627.12 -9.33311 -2.72395e-16)
(2627.28 -9.46648 3.78233e-18)
(2627.38 -9.54196 1.17354e-15)
(2625.36 -10.5709 -1.55537e-14)
(2628.86 -9.18369 -1.24039e-15)
(2626.99 -9.32955 1.78817e-14)
(2627.25 -9.42361 8.05637e-16)
(2625.23 -10.5748 -3.01438e-14)
)
;

boundaryField
{
    inlet
    {
        type            calculated;
        value           uniform (0 0 0);
    }
    outlet2
    {
        type            calculated;
        value           uniform (0 0 0);
    }
    outlet1
    {
        type            calculated;
        value           nonuniform List<vector> 0();
    }
    wall
    {
        type            calculated;
        value           uniform (0 0 0);
    }
    symmetryBottom
    {
        type            symmetry;
    }
    symmetryZ0
    {
        type            symmetry;
    }
    symmetryZ05
    {
        type            symmetry;
    }
    procBoundary1to0
    {
        type            processor;
        value           uniform (0 0 0);
    }
}


// ************************************************************************* //
