/*--------------------------------*- C++ -*----------------------------------*\
| =========                 |                                                 |
| \\      /  F ield         | OpenFOAM: The Open Source CFD Toolbox           |
|  \\    /   O peration     | Version:  2412                                  |
|   \\  /    A nd           | Website:  www.openfoam.com                      |
|    \\/     M anipulation  |                                                 |
\*---------------------------------------------------------------------------*/
FoamFile
{
    version     2.0;
    format      ascii;
    arch        "LSB;label=32;scalar=64";
    class       volScalarField;
    location    "5.6e-06";
    object      E;
}
// * * * * * * * * * * * * * * * * * * * * * * * * * * * * * * * * * * * * * //

dimensions      [0 0 0 0 0 0 0];

internalField   nonuniform List<scalar> 
84
(
99.4374
27.4597
42.2678
99.4645
27.4838
42.2903
99.4576
27.4807
42.2863
99.4576
27.4807
42.2863
99.4576
27.4807
42.2863
99.4576
27.4807
42.2863
99.4576
27.4807
42.2863
99.4576
27.4807
42.2863
99.4576
27.4807
42.2863
99.4576
27.4807
42.2863
99.4576
27.4806
42.2863
99.4578
27.4752
42.2833
72.0506
68.8863
69.4805
75.9445
72.4136
73.0501
75.5358
72.0432
72.6714
75.1289
71.6746
71.9437
68.7341
74.7235
71.3073
71.5681
71.9638
74.3202
70.9419
71.1944
71.5887
73.9264
70.5846
70.8292
71.222
73.5419
70.2357
70.4725
70.8617
73.1886
69.9118
70.1418
70.1496
68.8921
72.6962
69.4734
69.6928
69.694
70.0885
72.32
69.1313
69.3431
69.3406
69.839
71.9417
68.7876
68.9921
69.3768
)
;

boundaryField
{
    inlet
    {
        type            calculated;
        value           uniform 0;
    }
    outlet2
    {
        type            calculated;
        value           uniform 0;
    }
    outlet1
    {
        type            calculated;
        value           nonuniform List<scalar> 0();
    }
    wall
    {
        type            calculated;
        value           uniform 0;
    }
    symmetryBottom
    {
        type            symmetry;
    }
    symmetryZ0
    {
        type            symmetry;
    }
    symmetryZ05
    {
        type            symmetry;
    }
    procBoundary1to0
    {
        type            processor;
        value           uniform 0;
    }
}


// ************************************************************************* //
