/*--------------------------------*- C++ -*----------------------------------*\
| =========                 |                                                 |
| \\      /  F ield         | OpenFOAM: The Open Source CFD Toolbox           |
|  \\    /   O peration     | Version:  2412                                  |
|   \\  /    A nd           | Website:  www.openfoam.com                      |
|    \\/     M anipulation  |                                                 |
\*---------------------------------------------------------------------------*/
FoamFile
{
    version     2.0;
    format      ascii;
    arch        "LSB;label=32;scalar=64";
    class       volVectorField;
    location    "5.6e-06";
    object      rhoU;
}
// * * * * * * * * * * * * * * * * * * * * * * * * * * * * * * * * * * * * * //

dimensions      [0 0 0 0 0 0 0];

internalField   nonuniform List<vector> 
84
(
(0.0741099 -4.99925e-07 0)
(0.0207102 -6.23871e-07 0)
(0.0316389 -5.15869e-07 -1.22572e-19)
(0.0741301 -0.000125943 0)
(0.0207283 -4.93212e-05 0)
(0.0316558 -6.70914e-05 -1.18663e-19)
(0.074125 -0.000125453 0)
(0.020726 -4.91081e-05 0)
(0.0316528 -6.68124e-05 1.5925e-19)
(0.074125 -0.000125453 0)
(0.020726 -4.91081e-05 0)
(0.0316528 -6.68124e-05 -2.11669e-19)
(0.074125 -0.000125453 0)
(0.020726 -4.91081e-05 0)
(0.0316528 -6.68124e-05 -3.17765e-19)
(0.074125 -0.000125453 0)
(0.020726 -4.91081e-05 0)
(0.0316528 -6.68124e-05 2.06872e-19)
(0.074125 -0.000125453 0)
(0.020726 -4.91081e-05 0)
(0.0316528 -6.68124e-05 -2.2572e-19)
(0.074125 -0.000125453 0)
(0.020726 -4.91081e-05 0)
(0.0316528 -6.68124e-05 -2.61562e-19)
(0.074125 -0.000125453 0)
(0.020726 -4.91081e-05 0)
(0.0316528 -6.68124e-05 1.20981e-19)
(0.074125 -0.000125453 0)
(0.020726 -4.9108e-05 0)
(0.0316528 -6.68124e-05 -2.28127e-19)
(0.074125 -0.000125453 0)
(0.020726 -4.91047e-05 0)
(0.0316528 -6.68105e-05 -6.192e-19)
(0.0741252 -0.000125469 0)
(0.020722 -4.87113e-05 0)
(0.0316506 -6.65924e-05 0)
(0.0537929 0.000120814 1.28462e-20)
(0.0514555 0.000109493 1.30809e-19)
(0.0518949 0.000110789 1.34829e-20)
(0.0566766 -0.000122886 1.23712e-20)
(0.0540692 -0.000119133 1.4128e-19)
(0.0545396 -0.000119953 -3.57793e-21)
(0.0563734 -0.000122277 -1.74412e-20)
(0.0537942 -0.000118551 -6.67598e-20)
(0.0542585 -0.000119242 -2.33821e-19)
(0.0560715 -0.000121651 2.24509e-20)
(0.0535206 -0.000117973 -3.58688e-21)
(0.0537184 -0.000120058 2.42837e-22)
(0.0513367 8.18899e-06 2.1063e-19)
(0.0557707 -0.000121063 -3.40126e-20)
(0.0532479 -0.000117428 9.54153e-22)
(0.0534396 -0.000119493 -2.15159e-21)
(0.0537334 -0.000119968 2.11909e-19)
(0.0554695 -0.000115609 -2.20738e-20)
(0.0529748 -0.000112513 -1.36954e-19)
(0.0531604 -0.000114489 8.63014e-21)
(0.0534531 -0.000114946 1.4859e-19)
(0.0551671 -9.11471e-05 2.62135e-20)
(0.0527006 -9.02683e-05 -2.56282e-21)
(0.0528801 -9.17391e-05 -8.42628e-23)
(0.0531717 -9.2111e-05 -1.17477e-21)
(0.0548712 -7.60755e-05 3.2187e-20)
(0.0524322 -7.65377e-05 -1.3912e-19)
(0.0526057 -7.77142e-05 1.52765e-19)
(0.0528946 -7.79417e-05 2.09296e-21)
(0.0545613 -6.66594e-05 -1.24492e-20)
(0.0521502 -6.79489e-05 -2.04953e-19)
(0.0523175 -6.89081e-05 -1.88227e-19)
(0.0523223 -6.99221e-05 2.1938e-19)
(0.0514614 8.63832e-06 1.19978e-18)
(0.0542965 -6.49188e-05 2.75909e-20)
(0.0519127 -6.63553e-05 -2.00047e-19)
(0.0520745 -6.72423e-05 1.47409e-19)
(0.052076 -6.81997e-05 2.72956e-19)
(0.0523699 -6.8936e-05 1.77085e-19)
(0.0539953 -7.43539e-05 6.85828e-20)
(0.0516391 -7.4878e-05 -4.22059e-21)
(0.0517948 -7.59645e-05 4.38815e-22)
(0.0517932 -7.71397e-05 -3.69875e-22)
(0.0521628 -8.30828e-05 -2.15284e-19)
(0.05371 -9.02552e-05 1.48443e-22)
(0.0513798 -8.92319e-05 1.94455e-19)
(0.05153 -9.06276e-05 -1.80377e-20)
(0.0518156 -9.09556e-05 -2.73586e-19)
)
;

boundaryField
{
    inlet
    {
        type            calculated;
        value           uniform (0 0 0);
    }
    outlet2
    {
        type            calculated;
        value           uniform (0 0 0);
    }
    outlet1
    {
        type            calculated;
        value           nonuniform List<vector> 0();
    }
    wall
    {
        type            calculated;
        value           uniform (0 0 0);
    }
    symmetryBottom
    {
        type            symmetry;
    }
    symmetryZ0
    {
        type            symmetry;
    }
    symmetryZ05
    {
        type            symmetry;
    }
    procBoundary1to0
    {
        type            processor;
        value           uniform (0 0 0);
    }
}


// ************************************************************************* //
