/*--------------------------------*- C++ -*----------------------------------*\
| =========                 |                                                 |
| \\      /  F ield         | OpenFOAM: The Open Source CFD Toolbox           |
|  \\    /   O peration     | Version:  2412                                  |
|   \\  /    A nd           | Website:  www.openfoam.com                      |
|    \\/     M anipulation  |                                                 |
\*---------------------------------------------------------------------------*/
FoamFile
{
    version     2.0;
    format      ascii;
    arch        "LSB;label=32;scalar=64";
    class       volScalarField;
    location    "5.6e-06";
    object      T;
}
// * * * * * * * * * * * * * * * * * * * * * * * * * * * * * * * * * * * * * //

dimensions      [0 0 0 0 0 0 0];

internalField   nonuniform List<scalar> 
84
(
200.01
198.75
200.165
199.977
198.662
200.104
199.969
198.65
200.093
199.969
198.65
200.093
199.969
198.65
200.093
199.969
198.65
200.093
199.969
198.65
200.093
199.969
198.65
200.093
199.969
198.65
200.093
199.969
198.65
200.093
199.969
198.649
200.093
199.969
198.625
200.085
203.524
203.323
203.34
200.021
199.991
199.999
200.022
199.991
199.999
200.022
199.991
199.999
200.023
200.026
199.995
200.003
200.002
200.57
200.507
200.521
200.52
203.147
202.957
203.019
203.014
205.579
205.264
205.372
205.363
215.846
214.893
215.217
215.457
198.655
194.049
194.28
194.18
194.093
193.849
198.589
198.629
198.61
198.59
198.686
199.421
199.42
199.416
199.417
)
;

boundaryField
{
    inlet
    {
        type            calculated;
        value           uniform 0;
    }
    outlet2
    {
        type            calculated;
        value           uniform 0;
    }
    outlet1
    {
        type            calculated;
        value           nonuniform List<scalar> 0();
    }
    wall
    {
        type            calculated;
        value           uniform 0;
    }
    symmetryBottom
    {
        type            symmetry;
    }
    symmetryZ0
    {
        type            symmetry;
    }
    symmetryZ05
    {
        type            symmetry;
    }
    procBoundary1to0
    {
        type            processor;
        value           uniform 0;
    }
}


// ************************************************************************* //
