/*--------------------------------*- C++ -*----------------------------------*\
| =========                 |                                                 |
| \\      /  F ield         | OpenFOAM: The Open Source CFD Toolbox           |
|  \\    /   O peration     | Version:  2412                                  |
|   \\  /    A nd           | Website:  www.openfoam.com                      |
|    \\/     M anipulation  |                                                 |
\*---------------------------------------------------------------------------*/
FoamFile
{
    version     2.0;
    format      ascii;
    arch        "LSB;label=32;scalar=64";
    class       volScalarField;
    location    "6e-06";
    object      E_dof0;
}
// * * * * * * * * * * * * * * * * * * * * * * * * * * * * * * * * * * * * * //

dimensions      [0 0 0 0 0 0 0];

internalField   nonuniform List<scalar> 
84
(
99.4383
23.4576
40.1278
99.4688
23.4825
40.1515
99.461
23.4793
40.1471
99.461
23.4793
40.1471
99.461
23.4793
40.1471
99.461
23.4793
40.1471
99.461
23.4793
40.1471
99.461
23.4793
40.1471
99.461
23.4793
40.1471
99.461
23.4793
40.1471
99.461
23.4792
40.1471
99.4613
23.4736
40.1442
70.6025
67.0822
67.7376
74.7052
70.7619
71.4677
74.2735
70.3744
71.0706
73.8437
69.989
70.3064
66.9281
73.4156
69.6051
69.9132
70.3274
72.9897
69.223
69.5219
69.9345
72.5738
68.8495
69.1395
69.5505
72.1684
68.4851
68.7666
69.1735
71.795
68.1457
68.4198
68.4254
67.1063
71.2781
67.6909
67.9529
67.9518
68.366
70.8806
67.3328
67.5865
67.5816
68.1137
70.4827
66.9749
67.2204
67.6224
)
;

boundaryField
{
    inlet
    {
        type            calculated;
        value           uniform 99.4306;
    }
    outlet2
    {
        type            calculated;
        value           uniform 99.4306;
    }
    outlet1
    {
        type            calculated;
        value           nonuniform List<scalar> 0();
    }
    wall
    {
        type            calculated;
        value           uniform 99.4306;
    }
    symmetryBottom
    {
        type            symmetry;
    }
    symmetryZ0
    {
        type            symmetry;
    }
    symmetryZ05
    {
        type            symmetry;
    }
    procBoundary1to0
    {
        type            processor;
        value           uniform 99.4306;
    }
}


// ************************************************************************* //
