/*--------------------------------*- C++ -*----------------------------------*\
| =========                 |                                                 |
| \\      /  F ield         | OpenFOAM: The Open Source CFD Toolbox           |
|  \\    /   O peration     | Version:  2412                                  |
|   \\  /    A nd           | Website:  www.openfoam.com                      |
|    \\/     M anipulation  |                                                 |
\*---------------------------------------------------------------------------*/
FoamFile
{
    version     2.0;
    format      ascii;
    arch        "LSB;label=32;scalar=64";
    class       volScalarField;
    location    "6e-06";
    object      rho;
}
// * * * * * * * * * * * * * * * * * * * * * * * * * * * * * * * * * * * * * //

dimensions      [0 0 0 0 0 0 0];

internalField   nonuniform List<scalar> 
84
(
2.81107e-05
6.82787e-06
1.1448e-05
2.81193e-05
6.83501e-06
1.14548e-05
2.81171e-05
6.8341e-06
1.14535e-05
2.81171e-05
6.8341e-06
1.14535e-05
2.81171e-05
6.8341e-06
1.14535e-05
2.81171e-05
6.8341e-06
1.14535e-05
2.81171e-05
6.8341e-06
1.14535e-05
2.81171e-05
6.8341e-06
1.14535e-05
2.81171e-05
6.8341e-06
1.14535e-05
2.81171e-05
6.8341e-06
1.14535e-05
2.81171e-05
6.83408e-06
1.14535e-05
2.81172e-05
6.83248e-06
1.14527e-05
2.00416e-05
1.90633e-05
1.92456e-05
2.11796e-05
2.00853e-05
2.02814e-05
2.10587e-05
1.99766e-05
2.017e-05
2.09383e-05
1.98684e-05
1.99557e-05
1.90089e-05
2.08184e-05
1.97607e-05
1.98455e-05
1.99616e-05
2.06985e-05
1.96531e-05
1.97352e-05
1.9851e-05
2.05789e-05
1.95457e-05
1.96253e-05
1.97406e-05
2.04615e-05
1.94403e-05
1.95174e-05
1.96316e-05
2.03381e-05
1.93296e-05
1.94041e-05
1.94054e-05
1.90626e-05
2.0232e-05
1.92341e-05
1.93064e-05
1.93063e-05
1.94229e-05
2.01117e-05
1.9126e-05
1.91957e-05
1.91945e-05
1.93436e-05
1.99981e-05
1.90238e-05
1.90911e-05
1.92039e-05
)
;

boundaryField
{
    inlet
    {
        type            calculated;
        value           uniform 0;
    }
    outlet2
    {
        type            calculated;
        value           uniform 0;
    }
    outlet1
    {
        type            calculated;
        value           nonuniform List<scalar> 0();
    }
    wall
    {
        type            calculated;
        value           uniform 0;
    }
    symmetryBottom
    {
        type            symmetry;
    }
    symmetryZ0
    {
        type            symmetry;
    }
    symmetryZ05
    {
        type            symmetry;
    }
    procBoundary1to0
    {
        type            processor;
        value           uniform 0;
    }
}


// ************************************************************************* //
