/*--------------------------------*- C++ -*----------------------------------*\
| =========                 |                                                 |
| \\      /  F ield         | OpenFOAM: The Open Source CFD Toolbox           |
|  \\    /   O peration     | Version:  2412                                  |
|   \\  /    A nd           | Website:  www.openfoam.com                      |
|    \\/     M anipulation  |                                                 |
\*---------------------------------------------------------------------------*/
FoamFile
{
    version     2.0;
    format      ascii;
    arch        "LSB;label=32;scalar=64";
    class       volVectorField;
    location    "6e-06";
    object      rhoU;
}
// * * * * * * * * * * * * * * * * * * * * * * * * * * * * * * * * * * * * * //

dimensions      [0 0 0 0 0 0 0];

internalField   nonuniform List<vector> 
84
(
(0.0741106 -5.64279e-07 0)
(0.0177368 -6.46875e-07 0)
(0.0300411 -5.3781e-07 -1.22574e-19)
(0.0741333 -0.000132872 0)
(0.0177555 -4.66425e-05 0)
(0.0300589 -6.80619e-05 -1.18664e-19)
(0.0741276 -0.000132322 0)
(0.0177531 -4.64251e-05 0)
(0.0300556 -6.77597e-05 1.6003e-19)
(0.0741276 -0.000132322 0)
(0.0177531 -4.64251e-05 0)
(0.0300556 -6.77597e-05 -2.12468e-19)
(0.0741276 -0.000132322 0)
(0.0177531 -4.64251e-05 0)
(0.0300556 -6.77597e-05 -3.21673e-19)
(0.0741276 -0.000132322 0)
(0.0177531 -4.64251e-05 0)
(0.0300556 -6.77597e-05 2.09214e-19)
(0.0741276 -0.000132322 0)
(0.0177531 -4.64251e-05 0)
(0.0300556 -6.77597e-05 -2.30421e-19)
(0.0741276 -0.000132322 0)
(0.0177531 -4.64251e-05 0)
(0.0300556 -6.77597e-05 -2.6391e-19)
(0.0741276 -0.000132322 0)
(0.0177531 -4.64251e-05 0)
(0.0300556 -6.77597e-05 1.20197e-19)
(0.0741276 -0.000132322 0)
(0.0177531 -4.6425e-05 0)
(0.0300556 -6.77597e-05 -2.31278e-19)
(0.0741276 -0.000132322 0)
(0.0177531 -4.64213e-05 0)
(0.0300556 -6.77577e-05 -6.28591e-19)
(0.0741278 -0.000132339 0)
(0.0177489 -4.60112e-05 0)
(0.0300535 -6.75438e-05 0)
(0.0527173 0.000126928 1.42759e-20)
(0.0501164 0.000113904 1.38129e-19)
(0.0506008 0.000115446 1.426e-20)
(0.0557557 -0.000129529 1.3745e-20)
(0.0528433 -0.000124771 1.49882e-19)
(0.0533649 -0.000125755 -4.01518e-21)
(0.0554354 -0.000128839 -1.92826e-20)
(0.0525556 -0.000124116 -7.10063e-20)
(0.05307 -0.000124954 -2.38177e-19)
(0.0551166 -0.000128129 2.48926e-20)
(0.0522694 -0.000123467 -3.98583e-21)
(0.0525028 -0.000125739 2.85433e-22)
(0.0499957 9.24216e-06 2.106e-19)
(0.054799 -0.000127462 -3.33702e-20)
(0.0519843 -0.000122855 1.06688e-21)
(0.0522109 -0.000125105 -2.26751e-21)
(0.0525184 -0.000125637 2.12422e-19)
(0.0544808 -0.000121812 -2.44845e-20)
(0.0516988 -0.000117819 -1.44194e-19)
(0.0519185 -0.000119971 1.0076e-20)
(0.0522248 -0.000120485 1.56746e-19)
(0.0541615 -9.59165e-05 2.88027e-20)
(0.0514121 -9.44953e-05 -3.01484e-21)
(0.051625 -9.60851e-05 1.94843e-23)
(0.0519301 -9.65036e-05 -1.24499e-21)
(0.0538494 -8.00516e-05 3.52424e-20)
(0.0511318 -8.01752e-05 -1.47089e-19)
(0.0513381 -8.14401e-05 1.61974e-19)
(0.0516401 -8.16956e-05 2.31411e-21)
(0.0535213 -6.99407e-05 -1.3843e-20)
(0.0508361 -7.10401e-05 -2.07546e-19)
(0.0510354 -7.20594e-05 -1.96391e-19)
(0.0510387 -7.31207e-05 2.24746e-19)
(0.0501363 9.73934e-06 1.24743e-18)
(0.0532444 -6.79066e-05 3.02773e-20)
(0.0505904 -6.91989e-05 -2.09689e-19)
(0.0507837 -7.01329e-05 1.56169e-19)
(0.0507835 -7.11299e-05 2.7835e-19)
(0.0510923 -7.1968e-05 1.86557e-19)
(0.0529262 -7.79039e-05 7.58297e-20)
(0.0503041 -7.81355e-05 -5.05454e-21)
(0.0504907 -7.92929e-05 5.05086e-22)
(0.0504873 -8.05258e-05 -4.22156e-22)
(0.0508819 -8.72465e-05 -2.17975e-19)
(0.0526261 -9.45958e-05 1.55984e-22)
(0.050034 -9.30498e-05 2.03722e-19)
(0.0502144 -9.45493e-05 -2.03735e-20)
(0.0505129 -9.49168e-05 -2.80274e-19)
)
;

boundaryField
{
    inlet
    {
        type            calculated;
        value           uniform (0 0 0);
    }
    outlet2
    {
        type            calculated;
        value           uniform (0 0 0);
    }
    outlet1
    {
        type            calculated;
        value           nonuniform List<vector> 0();
    }
    wall
    {
        type            calculated;
        value           uniform (0 0 0);
    }
    symmetryBottom
    {
        type            symmetry;
    }
    symmetryZ0
    {
        type            symmetry;
    }
    symmetryZ05
    {
        type            symmetry;
    }
    procBoundary1to0
    {
        type            processor;
        value           uniform (0 0 0);
    }
}


// ************************************************************************* //
