/*--------------------------------*- C++ -*----------------------------------*\
| =========                 |                                                 |
| \\      /  F ield         | OpenFOAM: The Open Source CFD Toolbox           |
|  \\    /   O peration     | Version:  2412                                  |
|   \\  /    A nd           | Website:  www.openfoam.com                      |
|    \\/     M anipulation  |                                                 |
\*---------------------------------------------------------------------------*/
FoamFile
{
    version     2.0;
    format      ascii;
    arch        "LSB;label=32;scalar=64";
    class       volScalarField;
    location    "6e-06";
    object      T;
}
// * * * * * * * * * * * * * * * * * * * * * * * * * * * * * * * * * * * * * //

dimensions      [0 0 0 0 0 0 0];

internalField   nonuniform List<scalar> 
84
(
200.011
198.103
200.207
199.974
197.997
200.139
199.965
197.982
200.127
199.965
197.982
200.127
199.965
197.982
200.127
199.965
197.982
200.127
199.965
197.982
200.127
199.965
197.982
200.127
199.965
197.982
200.127
199.965
197.982
200.127
199.965
197.982
200.127
199.965
197.953
200.118
203.788
203.558
203.58
200.023
199.99
199.999
200.023
199.99
200
200.023
199.99
199.999
200.027
200.028
199.994
200.003
200.003
200.599
200.529
200.545
200.544
203.38
203.163
203.234
203.227
206.006
205.646
205.767
205.756
217.217
216.097
216.466
216.728
198.437
193.593
193.856
193.747
193.653
193.364
198.479
198.525
198.505
198.483
198.594
199.375
199.376
199.372
199.373
)
;

boundaryField
{
    inlet
    {
        type            calculated;
        value           uniform 0;
    }
    outlet2
    {
        type            calculated;
        value           uniform 0;
    }
    outlet1
    {
        type            calculated;
        value           nonuniform List<scalar> 0();
    }
    wall
    {
        type            calculated;
        value           uniform 0;
    }
    symmetryBottom
    {
        type            symmetry;
    }
    symmetryZ0
    {
        type            symmetry;
    }
    symmetryZ05
    {
        type            symmetry;
    }
    procBoundary1to0
    {
        type            processor;
        value           uniform 0;
    }
}


// ************************************************************************* //
