/*--------------------------------*- C++ -*----------------------------------*\
| =========                 |                                                 |
| \\      /  F ield         | OpenFOAM: The Open Source CFD Toolbox           |
|  \\    /   O peration     | Version:  2412                                  |
|   \\  /    A nd           | Website:  www.openfoam.com                      |
|    \\/     M anipulation  |                                                 |
\*---------------------------------------------------------------------------*/
FoamFile
{
    version     2.0;
    format      ascii;
    arch        "LSB;label=32;scalar=64";
    class       volVectorField;
    location    "6e-06";
    object      U;
}
// * * * * * * * * * * * * * * * * * * * * * * * * * * * * * * * * * * * * * //

dimensions      [0 0 0 0 0 0 0];

internalField   nonuniform List<vector> 
84
(
(2636.39 -0.0200735 0)
(2597.71 -0.0947404 0)
(2624.13 -0.0469785 -1.07071e-14)
(2636.39 -4.7253 0)
(2597.73 -6.82405 0)
(2624.14 -5.9418 -1.03594e-14)
(2636.39 -4.70611 0)
(2597.73 -6.79316 0)
(2624.14 -5.91605 1.39721e-14)
(2636.39 -4.70611 0)
(2597.73 -6.79315 0)
(2624.14 -5.91605 -1.85504e-14)
(2636.39 -4.70611 0)
(2597.73 -6.79315 0)
(2624.14 -5.91605 -2.80851e-14)
(2636.39 -4.70611 0)
(2597.73 -6.79315 0)
(2624.14 -5.91605 1.82664e-14)
(2636.39 -4.70611 0)
(2597.73 -6.79315 0)
(2624.14 -5.91605 -2.01179e-14)
(2636.39 -4.70611 0)
(2597.73 -6.79315 0)
(2624.14 -5.91605 -2.30418e-14)
(2636.39 -4.70611 0)
(2597.73 -6.79315 0)
(2624.14 -5.91605 1.04943e-14)
(2636.39 -4.70611 0)
(2597.73 -6.79315 0)
(2624.14 -5.91605 -2.01927e-14)
(2636.39 -4.70612 0)
(2597.73 -6.79262 0)
(2624.14 -5.91588 -5.48819e-14)
(2636.39 -4.70669 0)
(2597.72 -6.73418 0)
(2624.14 -5.89763 0)
(2630.4 6.33326 7.12317e-16)
(2628.95 5.97505 7.24582e-15)
(2629.22 5.99858 7.40949e-16)
(2632.52 -6.11576 6.48973e-16)
(2630.95 -6.21204 7.4623e-15)
(2631.23 -6.20053 -1.97974e-16)
(2632.43 -6.11809 -9.15659e-16)
(2630.86 -6.21309 -3.55448e-15)
(2631.14 -6.19504 -1.18085e-14)
(2632.33 -6.11936 1.18886e-15)
(2630.78 -6.21422 -2.00611e-16)
(2630.96 -6.30091 1.43033e-17)
(2630.11 0.486201 1.1079e-14)
(2632.24 -6.12256 -1.60292e-15)
(2630.69 -6.21713 5.39899e-17)
(2630.87 -6.30394 -1.14258e-16)
(2630.97 -6.29393 1.06415e-14)
(2632.11 -5.88508 -1.18291e-15)
(2630.57 -5.99492 -7.33695e-15)
(2630.75 -6.07904 5.10561e-16)
(2630.85 -6.06948 7.89612e-15)
(2631.9 -4.66092 1.39963e-15)
(2630.35 -4.83457 -1.54245e-16)
(2630.53 -4.89598 9.92816e-19)
(2630.62 -4.88858 -6.30677e-17)
(2631.75 -3.91231 1.72238e-15)
(2630.19 -4.12417 -7.56616e-15)
(2630.37 -4.17269 8.29896e-15)
(2630.47 -4.16144 1.17877e-16)
(2631.58 -3.4389 -6.80645e-16)
(2629.95 -3.67519 -1.07372e-14)
(2630.14 -3.71363 -1.01211e-14)
(2630.13 -3.76805 1.15816e-14)
(2630.09 0.510914 6.54388e-14)
(2631.69 -3.3564 1.49651e-15)
(2630.25 -3.59772 -1.09019e-14)
(2630.41 -3.63263 8.08898e-15)
(2630.4 -3.68428 1.44175e-14)
(2630.51 -3.70531 9.605e-15)
(2631.61 -3.87356 3.77043e-15)
(2630.14 -4.08529 -2.64275e-16)
(2630.3 -4.13075 2.63124e-17)
(2630.29 -4.19525 -2.19936e-17)
(2630.42 -4.51035 -1.12686e-14)
(2631.55 -4.73024 7.79996e-18)
(2630.08 -4.89124 1.07088e-14)
(2630.24 -4.95252 -1.06717e-15)
(2630.34 -4.94257 -1.45946e-14)
)
;

boundaryField
{
    inlet
    {
        type            calculated;
        value           uniform (0 0 0);
    }
    outlet2
    {
        type            calculated;
        value           uniform (0 0 0);
    }
    outlet1
    {
        type            calculated;
        value           nonuniform List<vector> 0();
    }
    wall
    {
        type            calculated;
        value           uniform (0 0 0);
    }
    symmetryBottom
    {
        type            symmetry;
    }
    symmetryZ0
    {
        type            symmetry;
    }
    symmetryZ05
    {
        type            symmetry;
    }
    procBoundary1to0
    {
        type            processor;
        value           uniform (0 0 0);
    }
}


// ************************************************************************* //
