/*--------------------------------*- C++ -*----------------------------------*\
| =========                 |                                                 |
| \\      /  F ield         | OpenFOAM: The Open Source CFD Toolbox           |
|  \\    /   O peration     | Version:  2412                                  |
|   \\  /    A nd           | Website:  www.openfoam.com                      |
|    \\/     M anipulation  |                                                 |
\*---------------------------------------------------------------------------*/
FoamFile
{
    version     2.0;
    format      ascii;
    arch        "LSB;label=32;scalar=64";
    class       volVectorField;
    location    "4.4e-06";
    object      rhoU_dof0;
}
// * * * * * * * * * * * * * * * * * * * * * * * * * * * * * * * * * * * * * //

dimensions      [0 0 0 0 0 0 0];

internalField   nonuniform List<vector> 
84
(
(0.0731783 0.000126611 1.26692e-19)
(0.0544783 9.61903e-05 -1.27158e-19)
(0.0558122 9.98763e-05 -2.52548e-19)
(0.0557518 0.000101237 1.40272e-19)
(0.0557559 0.00010275 -1.26992e-20)
(0.0557578 0.000104305 1.67649e-20)
(0.0557598 0.000105908 2.39579e-19)
(0.0560311 0.000106298 4.10533e-20)
(0.0761739 -0.000133747 1.31091e-19)
(0.0567598 -0.000102827 -1.26677e-19)
(0.0581802 -0.000106596 -3.11278e-19)
(0.0581536 -0.000108176 2.79831e-20)
(0.0581948 -0.000109905 -5.83042e-19)
(0.058235 -0.000111687 1.11667e-19)
(0.0582766 -0.000113527 4.67451e-19)
(0.058557 -0.00011392 9.34794e-20)
(0.0756689 -0.000123407 -5.50799e-19)
(0.0566996 -0.000110936 9.68741e-20)
(0.0579168 -0.000105419 1.75987e-19)
(0.0579032 -0.00010777 -1.47204e-20)
(0.0579396 -0.000109446 -6.37236e-21)
(0.0579757 -0.000111215 2.34542e-19)
(0.0580131 -0.00011304 -2.04762e-19)
(0.0582925 -0.000113431 -2.28644e-19)
(0.0754314 -0.000127093 -5.35936e-19)
(0.0563182 -0.000103832 2.52899e-19)
(0.0577163 -0.000107382 -2.04886e-20)
(0.0576834 -0.000108989 -5.203e-19)
(0.0577176 -0.000110745 5.01437e-19)
(0.0577506 -0.000112555 9.51725e-20)
(0.0580292 -0.000112945 -2.02762e-19)
(0.0752799 -0.000134331 -3.23194e-19)
(0.0560701 -0.000103074 -9.27681e-20)
(0.0574669 -0.000106977 7.45684e-21)
(0.05743 -0.000108559 2.28278e-21)
(0.0574602 -0.000110302 -1.86099e-19)
(0.057489 -0.000112097 1.42158e-19)
(0.0577666 -0.000112486 3.27222e-19)
(0.0749648 -0.000128579 -1.97201e-19)
(0.0558294 -9.85224e-05 2.77886e-19)
(0.0572169 -0.000102292 -2.14536e-20)
(0.0571763 -0.000103821 3.34387e-19)
(0.0572024 -0.000105505 -3.01329e-19)
(0.057227 -0.000107241 2.59741e-19)
(0.0575037 -0.000107615 -5.59505e-19)
(0.0746476 -0.000103167 -5.69021e-23)
(0.0555884 -7.90865e-05 2.68949e-19)
(0.056966 -8.20572e-05 -2.09969e-20)
(0.0569217 -8.32811e-05 2.47817e-23)
(0.0569437 -8.46249e-05 2.78221e-19)
(0.0569641 -8.601e-05 3.80683e-20)
(0.0572398 -8.63115e-05 2.78759e-19)
(0.0742341 -7.90565e-05 3.49741e-21)
(0.0554503 -7.36044e-05 2.47068e-21)
(0.0567109 -6.88362e-05 -1.18041e-21)
(0.0566723 -7.04963e-05 -2.73858e-21)
(0.0566898 -7.16089e-05 -5.67418e-22)
(0.0567061 -7.27882e-05 1.14056e-21)
(0.0569809 -7.30436e-05 -2.40905e-19)
(0.0739422 -7.46873e-05 6.86166e-19)
(0.0551191 -6.07024e-05 -4.86165e-20)
(0.0564745 -6.28328e-05 -5.75447e-19)
(0.0564233 -6.37703e-05 -2.07025e-19)
(0.0564374 -6.47982e-05 3.11882e-19)
(0.0567112 -6.50283e-05 -2.09118e-20)
(0.0737428 -7.78105e-05 -2.46172e-19)
(0.0548967 -5.93899e-05 1.73995e-20)
(0.0562485 -6.16622e-05 -2.67775e-19)
(0.056194 -6.2545e-05 2.90328e-19)
(0.0562047 -6.35217e-05 4.90521e-19)
(0.0564777 -6.37505e-05 -4.12347e-20)
(0.0733742 -8.31871e-05 -3.4286e-19)
(0.0546569 -6.73839e-05 2.35005e-20)
(0.0559943 -6.95212e-05 -5.94114e-22)
(0.0559363 -7.05474e-05 5.095e-19)
(0.0559427 -7.16581e-05 5.31411e-19)
(0.0562147 -7.19153e-05 2.47751e-20)
(0.0727769 -9.279e-06 -1.97729e-20)
(0.0544753 -8.77865e-05 9.41685e-22)
(0.0557469 -8.12907e-05 -3.19401e-23)
(0.0556896 -8.29978e-05 3.15056e-19)
(0.055692 -8.42547e-05 -2.47374e-20)
(0.0556925 -8.55719e-05 1.19173e-21)
(0.0559636 -8.58823e-05 -2.71447e-19)
)
;

boundaryField
{
    inlet
    {
        type            calculated;
        value           nonuniform List<vector> 0();
    }
    outlet2
    {
        type            calculated;
        value           uniform (0.0741049 0 0);
    }
    outlet1
    {
        type            calculated;
        value           uniform (0.0741049 0 0);
    }
    wall
    {
        type            calculated;
        value           uniform (0.0741049 0 0);
    }
    symmetryBottom
    {
        type            symmetry;
    }
    symmetryZ0
    {
        type            symmetry;
    }
    symmetryZ05
    {
        type            symmetry;
    }
    procBoundary0to1
    {
        type            processor;
        value           uniform (0.0741049 0 0);
    }
}


// ************************************************************************* //
