/*--------------------------------*- C++ -*----------------------------------*\
| =========                 |                                                 |
| \\      /  F ield         | OpenFOAM: The Open Source CFD Toolbox           |
|  \\    /   O peration     | Version:  2412                                  |
|   \\  /    A nd           | Website:  www.openfoam.com                      |
|    \\/     M anipulation  |                                                 |
\*---------------------------------------------------------------------------*/
FoamFile
{
    version     2.0;
    format      ascii;
    arch        "LSB;label=32;scalar=64";
    class       volScalarField;
    location    "4.4e-06";
    object      T;
}
// * * * * * * * * * * * * * * * * * * * * * * * * * * * * * * * * * * * * * //

dimensions      [0 0 0 0 0 0 0];

internalField   nonuniform List<scalar> 
84
(
202.672
202.719
202.783
202.822
202.866
202.911
202.957
202.954
199.987
199.976
200.001
199.998
199.998
199.998
199.998
199.998
199.975
199.977
200.001
199.998
199.998
199.998
199.998
199.998
199.989
199.975
200.001
199.998
199.998
199.998
199.998
199.99
199.978
200.004
200.001
200.001
200.001
200.001
200.42
200.432
200.46
200.462
200.467
200.473
200.472
202.389
202.464
202.519
202.555
202.594
202.635
202.631
204.155
204.421
204.453
204.524
204.595
204.669
204.663
211.214
212.452
212.591
212.806
213.027
213.005
195.276
195.154
195.11
195.028
194.946
194.953
198.809
198.833
198.836
198.814
198.794
198.796
199.906
199.483
199.521
199.51
199.502
199.494
199.495
)
;

boundaryField
{
    inlet
    {
        type            calculated;
        value           nonuniform List<scalar> 0();
    }
    outlet2
    {
        type            calculated;
        value           uniform 0;
    }
    outlet1
    {
        type            calculated;
        value           uniform 0;
    }
    wall
    {
        type            calculated;
        value           uniform 0;
    }
    symmetryBottom
    {
        type            symmetry;
    }
    symmetryZ0
    {
        type            symmetry;
    }
    symmetryZ05
    {
        type            symmetry;
    }
    procBoundary0to1
    {
        type            processor;
        value           uniform 0;
    }
}


// ************************************************************************* //
