/*--------------------------------*- C++ -*----------------------------------*\
| =========                 |                                                 |
| \\      /  F ield         | OpenFOAM: The Open Source CFD Toolbox           |
|  \\    /   O peration     | Version:  2412                                  |
|   \\  /    A nd           | Website:  www.openfoam.com                      |
|    \\/     M anipulation  |                                                 |
\*---------------------------------------------------------------------------*/
FoamFile
{
    version     2.0;
    format      ascii;
    arch        "LSB;label=32;scalar=64";
    class       volVectorField;
    location    "4.4e-06";
    object      U;
}
// * * * * * * * * * * * * * * * * * * * * * * * * * * * * * * * * * * * * * //

dimensions      [0 0 0 0 0 0 0];

internalField   nonuniform List<vector> 
84
(
(2635.1 4.55916 4.5621e-15)
(2630.24 4.64412 -6.13927e-15)
(2631.05 4.70829 -1.19054e-14)
(2630.99 4.77747 6.61958e-15)
(2630.97 4.84851 -5.99243e-16)
(2630.96 4.9217 7.91059e-16)
(2630.95 4.99713 1.13042e-14)
(2631.03 4.99142 1.92773e-15)
(2636.57 -4.62931 4.5374e-15)
(2631.79 -4.7678 -5.87367e-15)
(2632.61 -4.82339 -1.40851e-14)
(2632.57 -4.89706 1.26677e-15)
(2632.58 -4.97182 -2.63753e-14)
(2632.59 -5.04895 5.04804e-15)
(2632.6 -5.12851 2.11167e-14)
(2632.68 -5.12175 4.20277e-15)
(2636.44 -4.2997 -1.91908e-14)
(2631.83 -5.14931 4.49661e-15)
(2632.53 -4.79166 7.99925e-15)
(2632.5 -4.89962 -6.69247e-16)
(2632.51 -4.97274 -2.89531e-16)
(2632.52 -5.04996 1.06499e-14)
(2632.53 -5.12955 -9.29172e-15)
(2632.61 -5.12278 -1.0326e-14)
(2636.39 -4.44201 -1.87314e-14)
(2631.67 -4.85193 1.18176e-14)
(2632.48 -4.89776 -9.34501e-16)
(2632.44 -4.97383 -2.37444e-14)
(2632.45 -5.05097 2.28701e-14)
(2632.46 -5.1306 4.33827e-15)
(2632.54 -5.12383 -9.19847e-15)
(2636.39 -4.70444 -1.13186e-14)
(2631.59 -4.83769 -4.35398e-15)
(2632.41 -4.90034 3.41579e-16)
(2632.37 -4.97592 1.04633e-16)
(2632.38 -5.05315 -8.52559e-15)
(2632.39 -5.13285 6.50931e-15)
(2632.47 -5.12608 1.49117e-14)
(2636.3 -4.52176 -6.935e-15)
(2631.5 -4.64382 1.30981e-14)
(2632.32 -4.70603 -9.86996e-16)
(2632.27 -4.77967 1.53944e-14)
(2632.28 -4.85502 -1.38662e-14)
(2632.29 -4.93281 1.19474e-14)
(2632.37 -4.92635 -2.56127e-14)
(2636.17 -3.64332 -2.00949e-18)
(2631.33 -3.74364 1.2731e-14)
(2632.16 -3.79152 -9.7018e-16)
(2632.11 -3.85099 1.14592e-18)
(2632.11 -3.91162 1.28602e-14)
(2632.12 -3.97423 1.75901e-15)
(2632.2 -3.96907 1.28188e-14)
(2636.05 -2.80729 1.24193e-16)
(2631.27 -3.49272 1.1724e-16)
(2632.04 -3.19479 -5.47847e-17)
(2631.99 -3.27401 -1.27186e-16)
(2631.99 -3.32466 -2.63441e-17)
(2632 -3.37844 5.29389e-17)
(2632.08 -3.37405 -1.1128e-14)
(2635.94 -2.6625 2.44609e-14)
(2631.07 -2.89758 -2.32067e-15)
(2631.9 -2.92821 -2.68177e-14)
(2631.84 -2.97454 -9.6566e-15)
(2631.84 -3.02173 1.4544e-14)
(2631.93 -3.01792 -9.705e-16)
(2635.99 -2.78139 -8.79958e-15)
(2631.23 -2.84659 8.33967e-16)
(2632.04 -2.88536 -1.253e-14)
(2631.99 -2.92945 1.35982e-14)
(2631.99 -2.97463 2.29704e-14)
(2632.07 -2.97101 -1.9217e-15)
(2635.95 -2.98848 -1.23172e-14)
(2631.16 -3.24383 1.1313e-15)
(2631.97 -3.26779 -2.79258e-17)
(2631.91 -3.3194 2.3973e-14)
(2631.92 -3.37127 2.50011e-14)
(2632 -3.36711 1.15998e-15)
(2635.87 -0.336072 -7.16147e-16)
(2631.12 -4.24003 4.54828e-17)
(2631.92 -3.8379 -1.50796e-18)
(2631.87 -3.92245 1.48894e-14)
(2631.87 -3.98168 -1.16903e-15)
(2631.87 -4.04389 5.6318e-17)
(2631.95 -4.03902 -1.27661e-14)
)
;

boundaryField
{
    inlet
    {
        type            calculated;
        value           nonuniform List<vector> 0();
    }
    outlet2
    {
        type            calculated;
        value           uniform (0 0 0);
    }
    outlet1
    {
        type            calculated;
        value           uniform (0 0 0);
    }
    wall
    {
        type            calculated;
        value           uniform (0 0 0);
    }
    symmetryBottom
    {
        type            symmetry;
    }
    symmetryZ0
    {
        type            symmetry;
    }
    symmetryZ05
    {
        type            symmetry;
    }
    procBoundary0to1
    {
        type            processor;
        value           uniform (0 0 0);
    }
}


// ************************************************************************* //
