/*--------------------------------*- C++ -*----------------------------------*\
| =========                 |                                                 |
| \\      /  F ield         | OpenFOAM: The Open Source CFD Toolbox           |
|  \\    /   O peration     | Version:  2412                                  |
|   \\  /    A nd           | Website:  www.openfoam.com                      |
|    \\/     M anipulation  |                                                 |
\*---------------------------------------------------------------------------*/
FoamFile
{
    version     2.0;
    format      ascii;
    arch        "LSB;label=32;scalar=64";
    class       volScalarField;
    location    "2.2e-06";
    object      rho;
}
// * * * * * * * * * * * * * * * * * * * * * * * * * * * * * * * * * * * * * //

dimensions      [0 0 0 0 0 0 0];

internalField   nonuniform List<scalar> 
84
(
2.81088e-05
1.91029e-05
1.98376e-05
2.81102e-05
1.91057e-05
1.98402e-05
2.81098e-05
1.91055e-05
1.98399e-05
2.81098e-05
1.91055e-05
1.98399e-05
2.81098e-05
1.91055e-05
1.98399e-05
2.81098e-05
1.91055e-05
1.98399e-05
2.81098e-05
1.91055e-05
1.98399e-05
2.81098e-05
1.91055e-05
1.98399e-05
2.81098e-05
1.91055e-05
1.98399e-05
2.81098e-05
1.91055e-05
1.98399e-05
2.81098e-05
1.91054e-05
1.98399e-05
2.81099e-05
1.91047e-05
1.98393e-05
2.45659e-05
2.4394e-05
2.44484e-05
2.5057e-05
2.48737e-05
2.49293e-05
2.50062e-05
2.4824e-05
2.48793e-05
2.49554e-05
2.47744e-05
2.47843e-05
2.43726e-05
2.49047e-05
2.47249e-05
2.4734e-05
2.47857e-05
2.4854e-05
2.46754e-05
2.46838e-05
2.47353e-05
2.48034e-05
2.46259e-05
2.46336e-05
2.46851e-05
2.47531e-05
2.45768e-05
2.45837e-05
2.46351e-05
2.47021e-05
2.45269e-05
2.45331e-05
2.45352e-05
2.43808e-05
2.46534e-05
2.44794e-05
2.44849e-05
2.44863e-05
2.4538e-05
2.46028e-05
2.44299e-05
2.44346e-05
2.44353e-05
2.44916e-05
2.45529e-05
2.43812e-05
2.43851e-05
2.44362e-05
)
;

boundaryField
{
    inlet
    {
        type            calculated;
        value           uniform 0;
    }
    outlet2
    {
        type            calculated;
        value           uniform 0;
    }
    outlet1
    {
        type            calculated;
        value           nonuniform List<scalar> 0();
    }
    wall
    {
        type            calculated;
        value           uniform 0;
    }
    symmetryBottom
    {
        type            symmetry;
    }
    symmetryZ0
    {
        type            symmetry;
    }
    symmetryZ05
    {
        type            symmetry;
    }
    procBoundary1to0
    {
        type            processor;
        value           uniform 0;
    }
}


// ************************************************************************* //
