/*--------------------------------*- C++ -*----------------------------------*\
| =========                 |                                                 |
| \\      /  F ield         | OpenFOAM: The Open Source CFD Toolbox           |
|  \\    /   O peration     | Version:  2412                                  |
|   \\  /    A nd           | Website:  www.openfoam.com                      |
|    \\/     M anipulation  |                                                 |
\*---------------------------------------------------------------------------*/
FoamFile
{
    version     2.0;
    format      ascii;
    arch        "LSB;label=32;scalar=64";
    class       volVectorField;
    location    "2.2e-06";
    object      rhoU;
}
// * * * * * * * * * * * * * * * * * * * * * * * * * * * * * * * * * * * * * //

dimensions      [0 0 0 0 0 0 0];

internalField   nonuniform List<vector> 
84
(
(0.0741058 -8.43816e-08 0)
(0.0502319 -2.65335e-07 0)
(0.0521907 -2.35068e-07 -6.86966e-20)
(0.0741093 -5.66335e-05 0)
(0.0502394 -4.28412e-05 0)
(0.0521975 -4.40552e-05 -6.71348e-20)
(0.0741084 -5.65423e-05 0)
(0.0502386 -4.27706e-05 0)
(0.0521968 -4.39828e-05 1.01483e-19)
(0.0741084 -5.65423e-05 0)
(0.0502386 -4.27706e-05 0)
(0.0521968 -4.39828e-05 -1.29599e-19)
(0.0741084 -5.65423e-05 0)
(0.0502386 -4.27706e-05 0)
(0.0521968 -4.39828e-05 -2.18584e-19)
(0.0741084 -5.65423e-05 0)
(0.0502386 -4.27706e-05 0)
(0.0521968 -4.39828e-05 1.23341e-19)
(0.0741084 -5.65423e-05 0)
(0.0502386 -4.27706e-05 0)
(0.0521968 -4.39828e-05 -1.54579e-19)
(0.0741084 -5.65423e-05 0)
(0.0502386 -4.27706e-05 0)
(0.0521968 -4.39828e-05 -1.82675e-19)
(0.0741084 -5.65423e-05 0)
(0.0502386 -4.27706e-05 0)
(0.0521968 -4.39828e-05 6.71325e-20)
(0.0741084 -5.65423e-05 0)
(0.0502386 -4.27706e-05 0)
(0.0521968 -4.39828e-05 -1.54586e-19)
(0.0741084 -5.65423e-05 0)
(0.0502386 -4.27701e-05 0)
(0.0521968 -4.39823e-05 -3.80969e-19)
(0.0741085 -5.65503e-05 0)
(0.0502367 -4.25775e-05 0)
(0.0521951 -4.38217e-05 0)
(0.0647047 5.63561e-05 2.39096e-21)
(0.0642467 5.50365e-05 5.93721e-20)
(0.064391 5.51689e-05 5.91966e-21)
(0.0660172 -5.62297e-05 2.30098e-21)
(0.0655285 -5.66415e-05 6.33497e-20)
(0.0656758 -5.67305e-05 -5.66561e-22)
(0.0658824 -5.61276e-05 -3.72148e-21)
(0.0653968 -5.65383e-05 -2.91784e-20)
(0.0655433 -5.66077e-05 -1.28784e-19)
(0.0657477 -5.6024e-05 4.80201e-21)
(0.0652653 -5.64354e-05 -1.07625e-21)
(0.0652917 -5.72579e-05 3.18936e-23)
(0.0642005 1.38113e-06 9.011e-20)
(0.0656133 -5.5925e-05 -2.54455e-20)
(0.0651339 -5.63368e-05 -5.20504e-23)
(0.0651583 -5.71565e-05 -9.70592e-22)
(0.0652953 -5.72393e-05 9.20558e-20)
(0.0654787 -5.30988e-05 -4.68948e-21)
(0.0650024 -5.35791e-05 -6.32603e-20)
(0.0650248 -5.43602e-05 3.71059e-22)
(0.0651615 -5.44397e-05 6.12188e-20)
(0.0653437 -4.23991e-05 5.36073e-21)
(0.0648705 -4.31169e-05 -2.49979e-22)
(0.0648909 -4.37364e-05 -3.67721e-22)
(0.0650274 -4.3801e-05 -5.06205e-22)
(0.0652101 -3.55084e-05 7.19326e-21)
(0.06474 -3.63789e-05 -6.0648e-20)
(0.0647584 -3.68966e-05 6.66957e-20)
(0.0648944 -3.69372e-05 5.45835e-22)
(0.0650746 -3.18914e-05 -2.39108e-21)
(0.0646074 -3.28368e-05 -9.31842e-20)
(0.0646238 -3.32961e-05 -9.15804e-20)
(0.0646294 -3.378e-05 9.99289e-20)
(0.0642219 1.47781e-06 6.19979e-19)
(0.0649465 -3.1804e-05 6.03701e-21)
(0.0644828 -3.27459e-05 -9.36292e-20)
(0.0644973 -3.31973e-05 6.36719e-20)
(0.0645011 -3.36737e-05 1.52482e-19)
(0.064638 -3.37941e-05 9.58529e-20)
(0.0648125 -3.59173e-05 1.47511e-20)
(0.0643518 -3.67623e-05 -2.9995e-22)
(0.0643643 -3.72758e-05 1.24789e-22)
(0.0643663 -3.78263e-05 -3.32941e-23)
(0.0645155 -3.88165e-05 -9.28411e-20)
(0.0646806 -4.33905e-05 6.91795e-23)
(0.0642229 -4.4051e-05 8.97017e-20)
(0.0642335 -4.46729e-05 -3.10343e-21)
(0.0643689 -4.47328e-05 -1.59179e-19)
)
;

boundaryField
{
    inlet
    {
        type            calculated;
        value           uniform (0 0 0);
    }
    outlet2
    {
        type            calculated;
        value           uniform (0 0 0);
    }
    outlet1
    {
        type            calculated;
        value           nonuniform List<vector> 0();
    }
    wall
    {
        type            calculated;
        value           uniform (0 0 0);
    }
    symmetryBottom
    {
        type            symmetry;
    }
    symmetryZ0
    {
        type            symmetry;
    }
    symmetryZ05
    {
        type            symmetry;
    }
    procBoundary1to0
    {
        type            processor;
        value           uniform (0 0 0);
    }
}


// ************************************************************************* //
