/*--------------------------------*- C++ -*----------------------------------*\
| =========                 |                                                 |
| \\      /  F ield         | OpenFOAM: The Open Source CFD Toolbox           |
|  \\    /   O peration     | Version:  2412                                  |
|   \\  /    A nd           | Website:  www.openfoam.com                      |
|    \\/     M anipulation  |                                                 |
\*---------------------------------------------------------------------------*/
FoamFile
{
    version     2.0;
    format      ascii;
    arch        "LSB;label=32;scalar=64";
    class       volScalarField;
    location    "8.3e-06";
    object      E;
}
// * * * * * * * * * * * * * * * * * * * * * * * * * * * * * * * * * * * * * //

dimensions      [0 0 0 0 0 0 0];

internalField   nonuniform List<scalar> 
84
(
94.8437
52.7854
58.5314
58.0182
58.0593
58.0639
58.0708
58.6433
102.25
57.0272
63.2728
62.7945
62.9128
62.9943
63.0807
63.6905
100.639
57.4078
62.622
62.2956
62.3901
62.464
62.5412
63.1471
100.109
56.2235
62.3202
61.8367
61.9398
62.0062
62.6083
99.996
55.7053
61.8146
61.3225
61.4171
61.4746
62.0729
99.2051
55.2519
61.3062
60.8101
60.8959
60.9446
61.539
98.4277
54.8144
60.8086
60.3098
60.3868
60.427
61.0177
97.2509
54.8488
60.2513
59.8345
59.8953
59.9281
60.5151
96.6318
54.0363
59.8975
59.3938
59.4557
60.0373
96.0851
53.4771
59.3128
58.8031
58.8559
59.4328
95.1346
53.081
58.8227
58.3129
58.3568
58.9302
93.7161
52.8737
58.3194
57.842
57.875
57.875
58.4467
)
;

boundaryField
{
    inlet
    {
        type            calculated;
        value           nonuniform List<scalar> 0();
    }
    outlet2
    {
        type            calculated;
        value           uniform 0;
    }
    outlet1
    {
        type            calculated;
        value           uniform 0;
    }
    wall
    {
        type            calculated;
        value           uniform 0;
    }
    symmetryBottom
    {
        type            symmetry;
    }
    symmetryZ0
    {
        type            symmetry;
    }
    symmetryZ05
    {
        type            symmetry;
    }
    procBoundary0to1
    {
        type            processor;
        value           uniform 0;
    }
}


// ************************************************************************* //
