/*--------------------------------*- C++ -*----------------------------------*\
| =========                 |                                                 |
| \\      /  F ield         | OpenFOAM: The Open Source CFD Toolbox           |
|  \\    /   O peration     | Version:  2412                                  |
|   \\  /    A nd           | Website:  www.openfoam.com                      |
|    \\/     M anipulation  |                                                 |
\*---------------------------------------------------------------------------*/
FoamFile
{
    version     2.0;
    format      ascii;
    arch        "LSB;label=32;scalar=64";
    class       volVectorField;
    location    "8.3e-06";
    object      rhoU;
}
// * * * * * * * * * * * * * * * * * * * * * * * * * * * * * * * * * * * * * //

dimensions      [0 0 0 0 0 0 0];

internalField   nonuniform List<vector> 
84
(
(0.0707327 0.000224779 2.37098e-19)
(0.0395183 0.000128462 -2.10876e-19)
(0.0437585 0.000143846 -3.22954e-19)
(0.0433821 0.000144677 2.11014e-19)
(0.0434123 0.000146861 -4.45981e-20)
(0.0434158 0.000149021 3.189e-20)
(0.043421 0.000151249 3.1054e-19)
(0.0438463 0.000152394 2.39855e-20)
(0.0762134 -0.000251671 2.271e-19)
(0.0426668 -0.000147187 -2.10839e-19)
(0.0472742 -0.000163386 -4.3567e-19)
(0.0469241 -0.00016489 7.34807e-20)
(0.0470114 -0.000167694 -8.16838e-19)
(0.047072 -0.000170515 2.21793e-19)
(0.0471362 -0.000173436 6.55133e-19)
(0.0475889 -0.000174659 1.0387e-19)
(0.0750223 -0.000218662 -8.89434e-19)
(0.0429446 -0.000175891 1.99698e-19)
(0.0467921 -0.000157148 2.18317e-19)
(0.0465532 -0.000164072 -4.06323e-20)
(0.0466232 -0.000166319 -1.43927e-20)
(0.046678 -0.000169132 3.12145e-19)
(0.0467354 -0.000172005 -2.7322e-19)
(0.0471852 -0.000173221 -2.9292e-19)
(0.0746283 -0.000228454 -8.37384e-19)
(0.0420685 -0.000148677 3.89879e-19)
(0.0465666 -0.000163433 -5.85499e-20)
(0.0462125 -0.000164946 -7.18181e-19)
(0.0462886 -0.000167761 7.43858e-19)
(0.0463379 -0.000170588 1.0325e-19)
(0.0467849 -0.000171797 -2.69958e-19)
(0.0745428 -0.000250713 -4.69664e-19)
(0.0416836 -0.000145399 -1.10514e-19)
(0.0461908 -0.000162357 1.90488e-20)
(0.0458303 -0.000163686 5.76664e-21)
(0.0459001 -0.000166468 -2.37297e-19)
(0.0459429 -0.000169251 2.14595e-19)
(0.0463871 -0.000170454 4.6701e-19)
(0.0739534 -0.000242331 -3.33804e-19)
(0.0413447 -0.000140176 4.02902e-19)
(0.0458112 -0.000156711 -6.10126e-20)
(0.0454477 -0.000158034 4.72396e-19)
(0.0455109 -0.000160777 -4.49326e-19)
(0.0455472 -0.000163524 3.74597e-19)
(0.0459885 -0.000164686 -7.78768e-19)
(0.0733566 -0.00019316 -1.47271e-22)
(0.0410086 -0.000112273 3.54321e-19)
(0.0454292 -0.000125031 -5.68614e-20)
(0.0450635 -0.000126138 3.89936e-21)
(0.04512 -0.000128298 3.85724e-19)
(0.0451497 -0.000130467 3.30148e-20)
(0.0455881 -0.000131399 3.79527e-19)
(0.0724653 -0.00013746 1.05296e-20)
(0.04102 -0.000119073 8.72079e-21)
(0.0450028 -0.000102486 -3.06198e-21)
(0.0446971 -0.000107774 -7.6675e-21)
(0.0447414 -0.000109227 -1.30544e-21)
(0.0447653 -0.000111127 3.94389e-21)
(0.045201 -0.000111914 -2.87311e-19)
(0.0719211 -0.000131923 1.22546e-18)
(0.0403589 -8.55721e-05 -1.58544e-19)
(0.0446742 -9.42356e-05 -7.98329e-19)
(0.0443037 -9.50657e-05 -2.0382e-19)
(0.0443473 -9.66716e-05 4.55723e-19)
(0.0447786 -9.73679e-05 -7.92851e-20)
(0.0717054 -0.000139785 -4.22475e-19)
(0.0400578 -8.04981e-05 5.61536e-20)
(0.0443691 -8.99719e-05 -3.67013e-19)
(0.0439954 -9.0591e-05 4.23152e-19)
(0.0440348 -9.20309e-05 6.63878e-19)
(0.0444636 -9.27094e-05 -9.90552e-20)
(0.0709555 -0.000144036 -4.96927e-19)
(0.0397394 -9.41735e-05 7.33657e-20)
(0.0439777 -0.000102092 -5.35412e-21)
(0.0436037 -0.000103106 6.97981e-19)
(0.043636 -0.000104759 6.89349e-19)
(0.0440619 -0.000105527 2.0399e-21)
(0.0698884 -2.7545e-05 -5.13551e-20)
(0.0395806 -0.000135271 5.06173e-21)
(0.0435977 -0.000116572 -3.51138e-22)
(0.0432478 -0.000120841 4.3984e-19)
(0.0432719 -0.000122474 -6.77424e-20)
(0.043272 -0.000124385 6.48379e-21)
(0.0436967 -0.000125306 -3.53312e-19)
)
;

boundaryField
{
    inlet
    {
        type            calculated;
        value           nonuniform List<vector> 0();
    }
    outlet2
    {
        type            calculated;
        value           uniform (0 0 0);
    }
    outlet1
    {
        type            calculated;
        value           uniform (0 0 0);
    }
    wall
    {
        type            calculated;
        value           uniform (0 0 0);
    }
    symmetryBottom
    {
        type            symmetry;
    }
    symmetryZ0
    {
        type            symmetry;
    }
    symmetryZ05
    {
        type            symmetry;
    }
    procBoundary0to1
    {
        type            processor;
        value           uniform (0 0 0);
    }
}


// ************************************************************************* //
