/*--------------------------------*- C++ -*----------------------------------*\
| =========                 |                                                 |
| \\      /  F ield         | OpenFOAM: The Open Source CFD Toolbox           |
|  \\    /   O peration     | Version:  2412                                  |
|   \\  /    A nd           | Website:  www.openfoam.com                      |
|    \\/     M anipulation  |                                                 |
\*---------------------------------------------------------------------------*/
FoamFile
{
    version     2.0;
    format      ascii;
    arch        "LSB;label=32;scalar=64";
    class       volScalarField;
    location    "2.8e-06";
    object      E;
}
// * * * * * * * * * * * * * * * * * * * * * * * * * * * * * * * * * * * * * //

dimensions      [0 0 0 0 0 0 0];

internalField   nonuniform List<scalar> 
84
(
99.4325
59.3963
63.607
99.4401
59.4094
63.6188
99.4382
59.4079
63.6173
99.4382
59.4079
63.6173
99.4382
59.4079
63.6173
99.4382
59.4079
63.6173
99.4382
59.4079
63.6173
99.4382
59.4079
63.6173
99.4382
59.4079
63.6173
99.4382
59.4079
63.6173
99.4382
59.4079
63.6173
99.4383
59.4047
63.6147
83.7866
82.8165
83.0687
85.9841
84.9366
85.1962
85.7578
84.7182
84.9761
85.532
84.5003
84.5571
82.735
85.3066
84.2828
84.3361
84.5647
85.0828
84.0668
84.1166
84.3447
84.8639
83.8555
83.9019
84.1296
84.6482
83.6471
83.6903
83.917
84.4536
83.4583
83.4985
83.5081
82.7787
84.1685
83.1853
83.2211
83.2267
83.4543
83.9603
82.9841
83.0166
83.0196
83.2746
83.7441
82.7752
82.8045
83.0298
)
;

boundaryField
{
    inlet
    {
        type            calculated;
        value           uniform 0;
    }
    outlet2
    {
        type            calculated;
        value           uniform 0;
    }
    outlet1
    {
        type            calculated;
        value           nonuniform List<scalar> 0();
    }
    wall
    {
        type            calculated;
        value           uniform 0;
    }
    symmetryBottom
    {
        type            symmetry;
    }
    symmetryZ0
    {
        type            symmetry;
    }
    symmetryZ05
    {
        type            symmetry;
    }
    procBoundary1to0
    {
        type            processor;
        value           uniform 0;
    }
}


// ************************************************************************* //
