/*--------------------------------*- C++ -*----------------------------------*\
| =========                 |                                                 |
| \\      /  F ield         | OpenFOAM: The Open Source CFD Toolbox           |
|  \\    /   O peration     | Version:  2412                                  |
|   \\  /    A nd           | Website:  www.openfoam.com                      |
|    \\/     M anipulation  |                                                 |
\*---------------------------------------------------------------------------*/
FoamFile
{
    version     2.0;
    format      ascii;
    arch        "LSB;label=32;scalar=64";
    class       volVectorField;
    location    "2.8e-06";
    object      U;
}
// * * * * * * * * * * * * * * * * * * * * * * * * * * * * * * * * * * * * * //

dimensions      [0 0 0 0 0 0 0];

internalField   nonuniform List<vector> 
84
(
(2636.39 -0.00486197 0)
(2627 -0.0203024 0)
(2629.5 -0.0164195 -4.66472e-15)
(2636.39 -2.5024 0)
(2627 -2.86762 0)
(2629.5 -2.82058 -4.49106e-15)
(2636.39 -2.49735 0)
(2627 -2.86164 0)
(2629.5 -2.81472 6.30489e-15)
(2636.39 -2.49735 0)
(2627 -2.86164 0)
(2629.5 -2.81472 -8.20632e-15)
(2636.39 -2.49735 0)
(2627 -2.86164 0)
(2629.5 -2.81472 -1.38195e-14)
(2636.39 -2.49735 0)
(2627 -2.86164 0)
(2629.5 -2.81472 7.94592e-15)
(2636.39 -2.49735 0)
(2627 -2.86164 0)
(2629.5 -2.81472 -1.01064e-14)
(2636.39 -2.49735 0)
(2627 -2.86164 0)
(2629.5 -2.81472 -1.20922e-14)
(2636.39 -2.49735 0)
(2627 -2.86164 0)
(2629.5 -2.81472 4.57729e-15)
(2636.39 -2.49735 0)
(2627 -2.86164 0)
(2629.5 -2.81472 -1.00207e-14)
(2636.39 -2.49735 0)
(2627 -2.86159 0)
(2629.5 -2.81467 -2.47031e-14)
(2636.39 -2.49769 0)
(2627 -2.84773 0)
(2629.5 -2.80451 0)
(2633.32 2.92938 1.60073e-16)
(2632.98 2.85915 3.14382e-15)
(2633.04 2.86055 3.13822e-16)
(2634.28 -2.85565 1.50452e-16)
(2633.91 -2.89832 3.2866e-15)
(2633.97 -2.89592 -3.9093e-17)
(2634.24 -2.85633 -2.35116e-16)
(2633.87 -2.89883 -1.51723e-15)
(2633.93 -2.89514 -6.72597e-15)
(2634.2 -2.85687 3.0283e-16)
(2633.83 -2.89935 -5.93388e-17)
(2633.85 -2.94037 2.20365e-18)
(2633.5 0.0954676 4.86179e-15)
(2634.16 -2.85775 -1.16773e-15)
(2633.79 -2.9002 3.8566e-18)
(2633.81 -2.94125 -5.04413e-17)
(2633.85 -2.93894 4.9105e-15)
(2634.1 -2.72289 -2.97618e-16)
(2633.73 -2.76883 -3.31476e-15)
(2633.75 -2.80821 5.23253e-17)
(2633.8 -2.80604 3.23436e-15)
(2634.01 -2.17438 3.48831e-16)
(2633.64 -2.23255 -1.94076e-17)
(2633.66 -2.26364 -1.64695e-17)
(2633.7 -2.26193 -2.6603e-17)
(2633.95 -1.82389 4.59026e-16)
(2633.58 -1.8899 -3.23331e-15)
(2633.6 -1.91586 3.54162e-15)
(2633.64 -1.91345 3.19219e-17)
(2633.89 -1.63531 -1.57749e-16)
(2633.51 -1.70532 -4.85583e-15)
(2633.53 -1.72818 -4.71893e-15)
(2633.53 -1.75317 5.36847e-15)
(2633.49 0.101668 3.1796e-14)
(2633.9 -1.62856 3.86839e-16)
(2633.56 -1.69856 -4.89554e-15)
(2633.57 -1.72095 3.34923e-15)
(2633.57 -1.74549 7.98537e-15)
(2633.62 -1.74898 4.74028e-15)
(2633.87 -1.84872 9.44026e-16)
(2633.52 -1.91354 -2.61462e-17)
(2633.54 -1.93939 6.82526e-18)
(2633.54 -1.96819 -3.12322e-18)
(2633.59 -2.03032 -4.9619e-15)
(2633.85 -2.24172 3.59881e-18)
(2633.5 -2.29663 4.74875e-15)
(2633.51 -2.32834 -2.10886e-16)
(2633.56 -2.32612 -8.46039e-15)
)
;

boundaryField
{
    inlet
    {
        type            calculated;
        value           uniform (0 0 0);
    }
    outlet2
    {
        type            calculated;
        value           uniform (0 0 0);
    }
    outlet1
    {
        type            calculated;
        value           nonuniform List<vector> 0();
    }
    wall
    {
        type            calculated;
        value           uniform (0 0 0);
    }
    symmetryBottom
    {
        type            symmetry;
    }
    symmetryZ0
    {
        type            symmetry;
    }
    symmetryZ05
    {
        type            symmetry;
    }
    procBoundary1to0
    {
        type            processor;
        value           uniform (0 0 0);
    }
}


// ************************************************************************* //
