/*--------------------------------*- C++ -*----------------------------------*\
| =========                 |                                                 |
| \\      /  F ield         | OpenFOAM: The Open Source CFD Toolbox           |
|  \\    /   O peration     | Version:  2412                                  |
|   \\  /    A nd           | Website:  www.openfoam.com                      |
|    \\/     M anipulation  |                                                 |
\*---------------------------------------------------------------------------*/
FoamFile
{
    version     2.0;
    format      ascii;
    arch        "LSB;label=32;scalar=64";
    class       volScalarField;
    location    "1.5e-06";
    object      E;
}
// * * * * * * * * * * * * * * * * * * * * * * * * * * * * * * * * * * * * * //

dimensions      [0 0 0 0 0 0 0];

internalField   nonuniform List<scalar> 
84
(
99.4311
76.8617
78.1154
99.4334
76.868
78.1213
99.4328
76.8675
78.1207
99.4328
76.8675
78.1207
99.4328
76.8675
78.1207
99.4328
76.8675
78.1207
99.4328
76.8675
78.1207
99.4328
76.8675
78.1207
99.4328
76.8675
78.1207
99.4328
76.8675
78.1207
99.4328
76.8675
78.1207
99.4329
76.8657
78.1191
90.4546
90.1567
90.2884
91.703
91.392
91.5254
91.5755
91.2659
91.3989
91.4482
91.14
91.1591
90.1226
91.3211
91.0141
91.0314
91.1614
91.1949
90.8892
90.9047
91.0345
91.0715
90.767
90.7807
90.9104
90.9493
90.646
90.6579
90.7873
90.84
90.5376
90.5479
90.5538
90.1351
90.6761
90.376
90.3839
90.3875
90.5179
90.5589
90.2599
90.2661
90.268
90.4059
90.4353
90.1375
90.142
90.271
)
;

boundaryField
{
    inlet
    {
        type            calculated;
        value           uniform 0;
    }
    outlet2
    {
        type            calculated;
        value           uniform 0;
    }
    outlet1
    {
        type            calculated;
        value           nonuniform List<scalar> 0();
    }
    wall
    {
        type            calculated;
        value           uniform 0;
    }
    symmetryBottom
    {
        type            symmetry;
    }
    symmetryZ0
    {
        type            symmetry;
    }
    symmetryZ05
    {
        type            symmetry;
    }
    procBoundary1to0
    {
        type            processor;
        value           uniform 0;
    }
}


// ************************************************************************* //
