/*--------------------------------*- C++ -*----------------------------------*\
| =========                 |                                                 |
| \\      /  F ield         | OpenFOAM: The Open Source CFD Toolbox           |
|  \\    /   O peration     | Version:  2412                                  |
|   \\  /    A nd           | Website:  www.openfoam.com                      |
|    \\/     M anipulation  |                                                 |
\*---------------------------------------------------------------------------*/
FoamFile
{
    version     2.0;
    format      ascii;
    arch        "LSB;label=32;scalar=64";
    class       volVectorField;
    location    "1.5e-06";
    object      rhoU;
}
// * * * * * * * * * * * * * * * * * * * * * * * * * * * * * * * * * * * * * //

dimensions      [0 0 0 0 0 0 0];

internalField   nonuniform List<vector> 
84
(
(0.0741053 -3.79393e-08 0)
(0.0573753 -1.7263e-07 0)
(0.0582995 -1.58365e-07 -4.68381e-20)
(0.074107 -3.97374e-05 0)
(0.05738 -3.32234e-05 0)
(0.0583039 -3.3598e-05 -4.6838e-20)
(0.0741065 -3.96936e-05 0)
(0.0573797 -3.31868e-05 0)
(0.0583035 -3.3561e-05 7.49409e-20)
(0.0741065 -3.96936e-05 0)
(0.0573797 -3.31868e-05 0)
(0.0583035 -3.3561e-05 -1.01488e-19)
(0.0741065 -3.96936e-05 0)
(0.0573797 -3.31868e-05 0)
(0.0583035 -3.3561e-05 -1.63936e-19)
(0.0741065 -3.96936e-05 0)
(0.0573797 -3.31868e-05 0)
(0.0583035 -3.3561e-05 9.836e-20)
(0.0741065 -3.96936e-05 0)
(0.0573797 -3.31868e-05 0)
(0.0583035 -3.3561e-05 -1.171e-19)
(0.0741065 -3.96936e-05 0)
(0.0573797 -3.31868e-05 0)
(0.0583035 -3.3561e-05 -1.37394e-19)
(0.0741065 -3.96936e-05 0)
(0.0573797 -3.31868e-05 0)
(0.0583035 -3.3561e-05 4.83985e-20)
(0.0741065 -3.96936e-05 0)
(0.0573797 -3.31868e-05 0)
(0.0583035 -3.3561e-05 -1.17103e-19)
(0.0741065 -3.96936e-05 0)
(0.0573797 -3.31865e-05 0)
(0.0583035 -3.35607e-05 -2.91964e-19)
(0.0741066 -3.96992e-05 0)
(0.0573783 -3.30513e-05 0)
(0.0583023 -3.34402e-05 0)
(0.0674522 3.98605e-05 1.145e-21)
(0.0672326 3.94475e-05 4.21923e-20)
(0.0673302 3.95021e-05 4.13045e-21)
(0.0683759 -3.97076e-05 1.05474e-21)
(0.0681467 -4.01503e-05 4.48509e-20)
(0.0682456 -4.01891e-05 -2.49029e-22)
(0.0682814 -3.96608e-05 -1.78386e-21)
(0.0680532 -4.01026e-05 -2.05501e-20)
(0.0681517 -4.01327e-05 -8.79084e-20)
(0.0681871 -3.96135e-05 2.33259e-21)
(0.0679599 -4.00549e-05 -7.13358e-22)
(0.067974 -4.06315e-05 1.44906e-23)
(0.0672056 6.2065e-07 6.229e-20)
(0.0680928 -3.95675e-05 -2.12076e-20)
(0.0678666 -4.00086e-05 -1.70942e-22)
(0.0678793 -4.05839e-05 -6.82025e-22)
(0.0679757 -4.06222e-05 6.12504e-20)
(0.0679985 -3.75312e-05 -2.26204e-21)
(0.0677731 -3.79942e-05 -4.47851e-20)
(0.0677846 -3.85414e-05 -2.43804e-22)
(0.0678808 -3.85781e-05 4.12099e-20)
(0.0679038 -3.0063e-05 2.53502e-21)
(0.0676794 -3.05973e-05 -9.36925e-23)
(0.0676895 -3.1035e-05 -2.98463e-22)
(0.0677856 -3.1065e-05 -3.51722e-22)
(0.0678099 -2.52133e-05 3.59784e-21)
(0.0675865 -2.57944e-05 -4.20221e-20)
(0.0675952 -2.61619e-05 4.67449e-20)
(0.0676911 -2.61811e-05 3.31964e-22)
(0.0677153 -2.27607e-05 -1.16263e-21)
(0.0674928 -2.33627e-05 -6.62072e-20)
(0.0675 -2.36926e-05 -6.58847e-20)
(0.0675041 -2.40361e-05 7.01782e-20)
(0.0672155 6.69867e-07 4.57917e-19)
(0.0676241 -2.27979e-05 3.00868e-21)
(0.0674028 -2.33967e-05 -6.64792e-20)
(0.0674088 -2.37239e-05 4.4442e-20)
(0.0674115 -2.40649e-05 1.08076e-19)
(0.0675083 -2.41207e-05 7.15221e-20)
(0.0675303 -2.56701e-05 7.3412e-21)
(0.0673098 -2.62393e-05 -9.03122e-23)
(0.0673144 -2.66087e-05 8.5926e-23)
(0.0673159 -2.69981e-05 -3.1898e-24)
(0.0674181 -2.74432e-05 -6.45851e-20)
(0.0674372 -3.09647e-05 4.89304e-23)
(0.0672176 -3.14748e-05 6.39035e-20)
(0.0672209 -3.19197e-05 -1.45775e-21)
(0.0673165 -3.19483e-05 -1.10077e-19)
)
;

boundaryField
{
    inlet
    {
        type            calculated;
        value           uniform (0 0 0);
    }
    outlet2
    {
        type            calculated;
        value           uniform (0 0 0);
    }
    outlet1
    {
        type            calculated;
        value           nonuniform List<vector> 0();
    }
    wall
    {
        type            calculated;
        value           uniform (0 0 0);
    }
    symmetryBottom
    {
        type            symmetry;
    }
    symmetryZ0
    {
        type            symmetry;
    }
    symmetryZ05
    {
        type            symmetry;
    }
    procBoundary1to0
    {
        type            processor;
        value           uniform (0 0 0);
    }
}


// ************************************************************************* //
