/*--------------------------------*- C++ -*----------------------------------*\
| =========                 |                                                 |
| \\      /  F ield         | OpenFOAM: The Open Source CFD Toolbox           |
|  \\    /   O peration     | Version:  2412                                  |
|   \\  /    A nd           | Website:  www.openfoam.com                      |
|    \\/     M anipulation  |                                                 |
\*---------------------------------------------------------------------------*/
FoamFile
{
    version     2.0;
    format      ascii;
    arch        "LSB;label=32;scalar=64";
    class       volVectorField;
    location    "1.9e-06";
    object      U;
}
// * * * * * * * * * * * * * * * * * * * * * * * * * * * * * * * * * * * * * //

dimensions      [0 0 0 0 0 0 0];

internalField   nonuniform List<vector> 
84
(
(2636.39 -0.00222196 0)
(2630.67 -0.0111469 0)
(2631.62 -0.00974934 -2.85339e-15)
(2636.39 -1.76145 0)
(2630.67 -1.93336 0)
(2631.62 -1.91943 -2.85307e-15)
(2636.39 -1.75901 0)
(2630.67 -1.93065 0)
(2631.62 -1.91674 4.35474e-15)
(2636.39 -1.75901 0)
(2630.67 -1.93065 0)
(2631.62 -1.91674 -5.70666e-15)
(2636.39 -1.75901 0)
(2630.67 -1.93065 0)
(2631.62 -1.91674 -9.53557e-15)
(2636.39 -1.75901 0)
(2630.67 -1.93065 0)
(2631.62 -1.91674 5.4059e-15)
(2636.39 -1.75901 0)
(2630.67 -1.93065 0)
(2631.62 -1.91674 -6.68272e-15)
(2636.39 -1.75901 0)
(2630.67 -1.93065 0)
(2631.62 -1.91674 -7.88379e-15)
(2636.39 -1.75901 0)
(2630.67 -1.93065 0)
(2631.62 -1.91674 2.85303e-15)
(2636.39 -1.75901 0)
(2630.67 -1.93065 0)
(2631.62 -1.91674 -6.68296e-15)
(2636.39 -1.75901 0)
(2630.67 -1.93063 0)
(2631.62 -1.91672 -1.65937e-14)
(2636.39 -1.75926 0)
(2630.67 -1.92235 0)
(2631.62 -1.9098 0)
(2634.24 1.97754 7.19714e-17)
(2634.08 1.9526 2.09319e-15)
(2634.11 1.95271 2.07219e-16)
(2634.89 -1.93821 6.72206e-17)
(2634.71 -1.96659 2.21542e-15)
(2634.75 -1.96546 -1.63565e-17)
(2634.86 -1.93861 -1.11094e-16)
(2634.69 -1.96694 -1.01019e-15)
(2634.72 -1.96525 -4.41266e-15)
(2634.83 -1.93896 1.44839e-16)
(2634.66 -1.96729 -3.63532e-17)
(2634.67 -1.99518 9.34404e-19)
(2634.43 0.0411246 3.14605e-15)
(2634.8 -1.93943 -9.40742e-16)
(2634.63 -1.96775 -4.42174e-18)
(2634.64 -1.99566 -3.37317e-17)
(2634.67 -1.99453 3.11923e-15)
(2634.76 -1.84386 -1.42037e-16)
(2634.59 -1.87348 -2.17566e-15)
(2634.6 -1.90015 2.12605e-18)
(2634.63 -1.8991 2.11391e-15)
(2634.7 -1.47685 1.60464e-16)
(2634.53 -1.51073 -6.85324e-18)
(2634.54 -1.53203 -1.36832e-17)
(2634.57 -1.5312 -1.75413e-17)
(2634.66 -1.23971 2.2007e-16)
(2634.49 -1.27637 -2.1278e-15)
(2634.5 -1.29428 2.29209e-15)
(2634.53 -1.29318 1.79378e-17)
(2634.63 -1.11785 -7.25139e-17)
(2634.45 -1.15581 -3.23941e-15)
(2634.46 -1.17184 -3.25244e-15)
(2634.46 -1.18876 3.4571e-15)
(2634.43 0.0441223 2.23016e-14)
(2634.63 -1.1188 1.85004e-16)
(2634.47 -1.15665 -3.31186e-15)
(2634.47 -1.17252 2.22068e-15)
(2634.47 -1.18929 5.37841e-15)
(2634.5 -1.19073 3.5098e-15)
(2634.61 -1.26413 4.53405e-16)
(2634.45 -1.30021 -7.67862e-18)
(2634.45 -1.31826 4.33428e-18)
(2634.45 -1.33762 -7.28912e-19)
(2634.48 -1.36436 -3.2351e-15)
(2634.6 -1.52888 2.42855e-18)
(2634.43 -1.56139 3.16643e-15)
(2634.44 -1.58328 -9.3724e-17)
(2634.47 -1.58225 -5.53841e-15)
)
;

boundaryField
{
    inlet
    {
        type            calculated;
        value           uniform (0 0 0);
    }
    outlet2
    {
        type            calculated;
        value           uniform (0 0 0);
    }
    outlet1
    {
        type            calculated;
        value           nonuniform List<vector> 0();
    }
    wall
    {
        type            calculated;
        value           uniform (0 0 0);
    }
    symmetryBottom
    {
        type            symmetry;
    }
    symmetryZ0
    {
        type            symmetry;
    }
    symmetryZ05
    {
        type            symmetry;
    }
    procBoundary1to0
    {
        type            processor;
        value           uniform (0 0 0);
    }
}


// ************************************************************************* //
