/*--------------------------------*- C++ -*----------------------------------*\
| =========                 |                                                 |
| \\      /  F ield         | OpenFOAM: The Open Source CFD Toolbox           |
|  \\    /   O peration     | Version:  2412                                  |
|   \\  /    A nd           | Website:  www.openfoam.com                      |
|    \\/     M anipulation  |                                                 |
\*---------------------------------------------------------------------------*/
FoamFile
{
    version     2.0;
    format      ascii;
    arch        "LSB;label=32;scalar=64";
    class       volScalarField;
    location    "7.7e-06";
    object      rho;
}
// * * * * * * * * * * * * * * * * * * * * * * * * * * * * * * * * * * * * * //

dimensions      [0 0 0 0 0 0 0];

internalField   nonuniform List<scalar> 
84
(
2.70279e-05
1.5882e-05
1.72774e-05
1.71637e-05
1.71726e-05
1.7174e-05
1.7176e-05
1.73294e-05
2.89418e-05
1.70362e-05
1.85453e-05
1.84433e-05
1.84726e-05
1.84947e-05
1.85179e-05
1.86804e-05
2.85368e-05
1.7112e-05
1.83772e-05
1.8308e-05
1.83319e-05
1.83519e-05
1.83726e-05
1.85341e-05
2.8396e-05
1.68137e-05
1.82891e-05
1.81852e-05
1.82105e-05
1.82285e-05
1.8389e-05
2.83558e-05
1.66748e-05
1.81527e-05
1.80465e-05
1.80695e-05
1.80851e-05
1.82448e-05
2.81494e-05
1.65502e-05
1.80154e-05
1.79079e-05
1.79285e-05
1.79418e-05
1.81005e-05
2.79417e-05
1.64274e-05
1.78784e-05
1.77697e-05
1.7788e-05
1.7799e-05
1.79567e-05
2.76353e-05
1.64177e-05
1.77278e-05
1.76367e-05
1.76511e-05
1.76599e-05
1.78167e-05
2.7446e-05
1.61896e-05
1.76079e-05
1.7497e-05
1.75107e-05
1.76662e-05
2.73599e-05
1.60736e-05
1.7491e-05
1.73787e-05
1.73908e-05
1.75454e-05
2.70987e-05
1.59551e-05
1.73499e-05
1.72369e-05
1.72465e-05
1.74002e-05
2.67211e-05
1.58904e-05
1.72125e-05
1.71065e-05
1.71133e-05
1.71135e-05
1.72666e-05
)
;

boundaryField
{
    inlet
    {
        type            calculated;
        value           nonuniform List<scalar> 0();
    }
    outlet2
    {
        type            calculated;
        value           uniform 0;
    }
    outlet1
    {
        type            calculated;
        value           uniform 0;
    }
    wall
    {
        type            calculated;
        value           uniform 0;
    }
    symmetryBottom
    {
        type            symmetry;
    }
    symmetryZ0
    {
        type            symmetry;
    }
    symmetryZ05
    {
        type            symmetry;
    }
    procBoundary0to1
    {
        type            processor;
        value           uniform 0;
    }
}


// ************************************************************************* //
