/*--------------------------------*- C++ -*----------------------------------*\
| =========                 |                                                 |
| \\      /  F ield         | OpenFOAM: The Open Source CFD Toolbox           |
|  \\    /   O peration     | Version:  2412                                  |
|   \\  /    A nd           | Website:  www.openfoam.com                      |
|    \\/     M anipulation  |                                                 |
\*---------------------------------------------------------------------------*/
FoamFile
{
    version     2.0;
    format      ascii;
    arch        "LSB;label=32;scalar=64";
    class       volVectorField;
    location    "7.7e-06";
    object      rhoU_dof0;
}
// * * * * * * * * * * * * * * * * * * * * * * * * * * * * * * * * * * * * * //

dimensions      [0 0 0 0 0 0 0];

internalField   nonuniform List<vector> 
84
(
(0.071182 0.000210734 2.18905e-19)
(0.0416768 0.000126161 -2.03513e-19)
(0.0453923 0.000139014 -3.16423e-19)
(0.0450873 0.000140085 2.0876e-19)
(0.0451107 0.000142186 -3.91753e-20)
(0.0451142 0.000144287 2.94395e-20)
(0.0451188 0.000146455 3.03779e-19)
(0.0455247 0.000147469 2.7401e-20)
(0.0762966 -0.00023385 2.14037e-19)
(0.0447526 -0.000142947 -2.03608e-19)
(0.048774 -0.000156402 -4.22504e-19)
(0.0485 -0.00015807 6.59204e-20)
(0.0485779 -0.000160724 -7.88663e-19)
(0.0486363 -0.000163413 2.15452e-19)
(0.0486977 -0.000166196 6.4357e-19)
(0.0491278 -0.000167271 1.10077e-19)
(0.0752205 -0.000204933 -8.39362e-19)
(0.0449575 -0.000167734 1.82572e-19)
(0.0483282 -0.000151286 2.19097e-19)
(0.0481421 -0.000157275 -3.66127e-20)
(0.0482057 -0.00015951 -1.32419e-20)
(0.0482584 -0.000162185 3.06373e-19)
(0.0483134 -0.000164926 -2.63153e-19)
(0.0487409 -0.000165996 -2.84959e-19)
(0.0748471 -0.000213633 -7.9396e-19)
(0.0441649 -0.000144331 3.72183e-19)
(0.0480962 -0.000156615 -5.1882e-20)
(0.0478171 -0.000158299 -6.99364e-19)
(0.0478843 -0.000160967 7.19433e-19)
(0.0479319 -0.000163667 1.0377e-19)
(0.048357 -0.000164731 -2.64246e-19)
(0.0747426 -0.000233238 -4.61954e-19)
(0.0437974 -0.000141572 -1.11039e-19)
(0.0477354 -0.000155641 1.73225e-20)
(0.0474502 -0.000157181 5.22825e-21)
(0.0475114 -0.000159818 -2.31679e-19)
(0.0475527 -0.00016248 2.14272e-19)
(0.0479753 -0.000163539 4.49858e-19)
(0.0741945 -0.000225099 -3.13147e-19)
(0.0434672 -0.000136307 3.86116e-19)
(0.0473715 -0.000150008 -5.42139e-20)
(0.0470828 -0.000151529 4.57793e-19)
(0.0471377 -0.000154121 -4.31063e-19)
(0.0471728 -0.000156739 3.60403e-19)
(0.0475929 -0.000157762 -7.51272e-19)
(0.07364 -0.000179616 -1.33171e-22)
(0.0431391 -0.00010919 3.46668e-19)
(0.0470055 -0.000119789 -5.09438e-20)
(0.0467138 -0.000121038 3.02482e-21)
(0.0467625 -0.000123084 3.73427e-19)
(0.0467913 -0.000125155 3.37426e-20)
(0.0472088 -0.000125975 3.68859e-19)
(0.0728259 -0.000129205 9.36764e-21)
(0.0431131 -0.000113161 7.52209e-21)
(0.0466048 -9.86958e-05 -2.68535e-21)
(0.0463601 -0.000103223 -6.84748e-21)
(0.0463984 -0.00010468 -1.23848e-21)
(0.0464216 -0.000106481 3.446e-21)
(0.0468366 -0.000107175 -2.85214e-19)
(0.0723197 -0.000123715 1.1532e-18)
(0.0425037 -8.32623e-05 -1.37929e-19)
(0.0462833 -9.05012e-05 -7.7365e-19)
(0.0459856 -9.1439e-05 -2.05935e-19)
(0.046022 -9.29661e-05 4.3705e-19)
(0.0464335 -9.35812e-05 -7.02539e-20)
(0.0720985 -0.00013082 -3.97783e-19)
(0.0422097 -7.8874e-05 4.90641e-20)
(0.0459851 -8.67838e-05 -3.55398e-19)
(0.0456839 -8.75412e-05 4.05775e-19)
(0.0457163 -8.89227e-05 6.55554e-19)
(0.0461255 -8.95239e-05 -9.01266e-20)
(0.0714084 -0.000135524 -4.80994e-19)
(0.0418953 -9.1696e-05 6.5088e-20)
(0.0456109 -9.83869e-05 -4.26045e-21)
(0.0453083 -9.94814e-05 6.84692e-19)
(0.0453339 -0.000101067 6.80246e-19)
(0.0457406 -0.000101746 1.24716e-20)
(0.0704098 -2.43937e-05 -4.62952e-20)
(0.0417245 -0.000129626 4.19674e-21)
(0.0452482 -0.000112853 -2.67913e-22)
(0.044964 -0.000116642 4.23658e-19)
(0.0449823 -0.000118262 -6.0504e-20)
(0.0449826 -0.000120107 5.34994e-21)
(0.045388 -0.000120922 -3.44321e-19)
)
;

boundaryField
{
    inlet
    {
        type            calculated;
        value           nonuniform List<vector> 0();
    }
    outlet2
    {
        type            calculated;
        value           uniform (0.0741049 0 0);
    }
    outlet1
    {
        type            calculated;
        value           uniform (0.0741049 0 0);
    }
    wall
    {
        type            calculated;
        value           uniform (0.0741049 0 0);
    }
    symmetryBottom
    {
        type            symmetry;
    }
    symmetryZ0
    {
        type            symmetry;
    }
    symmetryZ05
    {
        type            symmetry;
    }
    procBoundary0to1
    {
        type            processor;
        value           uniform (0.0741049 0 0);
    }
}


// ************************************************************************* //
