/*--------------------------------*- C++ -*----------------------------------*\
| =========                 |                                                 |
| \\      /  F ield         | OpenFOAM: The Open Source CFD Toolbox           |
|  \\    /   O peration     | Version:  2412                                  |
|   \\  /    A nd           | Website:  www.openfoam.com                      |
|    \\/     M anipulation  |                                                 |
\*---------------------------------------------------------------------------*/
FoamFile
{
    version     2.0;
    format      ascii;
    arch        "LSB;label=32;scalar=64";
    class       volScalarField;
    location    "6.5e-06";
    object      rho;
}
// * * * * * * * * * * * * * * * * * * * * * * * * * * * * * * * * * * * * * //

dimensions      [0 0 0 0 0 0 0];

internalField   nonuniform List<scalar> 
84
(
2.8111e-05
5.47212e-06
1.07643e-05
2.81209e-05
5.47943e-06
1.07715e-05
2.81184e-05
5.47851e-06
1.07702e-05
2.81184e-05
5.47851e-06
1.07702e-05
2.81184e-05
5.47851e-06
1.07702e-05
2.81184e-05
5.47851e-06
1.07702e-05
2.81184e-05
5.47851e-06
1.07702e-05
2.81184e-05
5.47851e-06
1.07702e-05
2.81184e-05
5.47851e-06
1.07702e-05
2.81184e-05
5.47851e-06
1.07702e-05
2.81184e-05
5.47849e-06
1.07702e-05
2.81184e-05
5.47681e-06
1.07694e-05
1.95518e-05
1.84478e-05
1.86526e-05
2.07596e-05
1.95189e-05
1.97406e-05
2.06308e-05
1.94045e-05
1.96231e-05
2.05027e-05
1.92909e-05
1.93966e-05
1.83931e-05
2.03751e-05
1.91777e-05
1.92805e-05
1.94027e-05
2.02475e-05
1.90646e-05
1.91645e-05
1.92861e-05
2.01202e-05
1.89518e-05
1.90488e-05
1.91699e-05
1.99955e-05
1.88413e-05
1.89354e-05
1.90552e-05
1.98638e-05
1.87246e-05
1.88157e-05
1.88161e-05
1.84547e-05
1.97522e-05
1.86253e-05
1.8714e-05
1.8713e-05
1.88362e-05
1.96241e-05
1.85117e-05
1.85975e-05
1.85952e-05
1.87561e-05
1.95038e-05
1.84047e-05
1.84879e-05
1.86062e-05
)
;

boundaryField
{
    inlet
    {
        type            calculated;
        value           uniform 0;
    }
    outlet2
    {
        type            calculated;
        value           uniform 0;
    }
    outlet1
    {
        type            calculated;
        value           nonuniform List<scalar> 0();
    }
    wall
    {
        type            calculated;
        value           uniform 0;
    }
    symmetryBottom
    {
        type            symmetry;
    }
    symmetryZ0
    {
        type            symmetry;
    }
    symmetryZ05
    {
        type            symmetry;
    }
    procBoundary1to0
    {
        type            processor;
        value           uniform 0;
    }
}


// ************************************************************************* //
