/*--------------------------------*- C++ -*----------------------------------*\
| =========                 |                                                 |
| \\      /  F ield         | OpenFOAM: The Open Source CFD Toolbox           |
|  \\    /   O peration     | Version:  2412                                  |
|   \\  /    A nd           | Website:  www.openfoam.com                      |
|    \\/     M anipulation  |                                                 |
\*---------------------------------------------------------------------------*/
FoamFile
{
    version     2.0;
    format      ascii;
    arch        "LSB;label=32;scalar=64";
    class       volVectorField;
    location    "8.4e-06";
    object      rhoU_dof0;
}
// * * * * * * * * * * * * * * * * * * * * * * * * * * * * * * * * * * * * * //

dimensions      [0 0 0 0 0 0 0];

internalField   nonuniform List<vector> 
84
(
(0.0861755 1.6621e-07 -2.927e-21)
(0.00965835 -4.25753e-07 2.26953e-20)
(0.0157159 3.01475e-08 -1.23363e-19)
(0.0862008 -0.000234435 -3.10067e-21)
(0.00970892 -3.72865e-05 2.39633e-20)
(0.0152772 -5.08571e-05 -1.29211e-19)
(0.0862158 -0.000234476 4.07631e-21)
(0.00970599 -3.73129e-05 -3.14451e-20)
(0.0153345 -5.06789e-05 1.69395e-19)
(0.0862163 -0.000234484 -5.32374e-21)
(0.00970022 -3.7297e-05 4.09979e-20)
(0.0153915 -5.08523e-05 -2.22991e-19)
(0.0862168 -0.000234485 -9.46523e-21)
(0.00969447 -3.72798e-05 7.24741e-20)
(0.0154484 -5.10282e-05 -3.83436e-19)
(0.0862173 -0.000234486 5.18519e-21)
(0.00968874 -3.72626e-05 -3.96449e-20)
(0.015505 -5.12023e-05 2.13455e-19)
(0.0862178 -0.000234488 -6.93759e-21)
(0.00968302 -3.72454e-05 5.34157e-20)
(0.0155613 -5.13756e-05 -2.87789e-19)
(0.0862183 -0.000234489 -8.05349e-21)
(0.00967733 -3.72284e-05 6.19276e-20)
(0.0156173 -5.15481e-05 -3.34264e-19)
(0.0862187 -0.000234491 2.99846e-21)
(0.00967167 -3.72114e-05 -2.30063e-20)
(0.015673 -5.17197e-05 1.2249e-19)
(0.0862192 -0.000234492 -6.83658e-21)
(0.00966602 -3.71944e-05 5.31443e-20)
(0.0157285 -5.18905e-05 -2.91783e-19)
(0.0862197 -0.000234494 -1.7729e-20)
(0.00966037 -3.71775e-05 1.37225e-19)
(0.0157836 -5.20603e-05 -7.44658e-19)
(0.0862206 -0.00023469 4.58718e-24)
(0.00965468 -3.67735e-05 -1.00774e-22)
(0.0158385 -5.19217e-05 1.66014e-21)
(0.0458999 -2.64878e-06 -1.42826e-21)
(0.043562 -2.54487e-06 1.80733e-19)
(0.0418995 -2.47406e-06 -1.34044e-20)
(0.0488556 -0.000156412 -8.66719e-22)
(0.0462784 -0.000150889 1.83454e-19)
(0.0445043 -0.000144524 -1.63314e-20)
(0.0485162 -0.000157911 -1.01427e-20)
(0.045966 -0.000152245 -6.48658e-20)
(0.0442335 -0.000147317 -2.69267e-19)
(0.0481366 -0.000156755 1.93845e-20)
(0.0455342 -0.000150267 -3.47267e-21)
(0.0460384 -0.000166018 -2.33738e-20)
(0.0400577 4.1013e-05 3.42174e-19)
(0.0477569 -0.000155535 -5.06224e-20)
(0.0451973 -0.000149642 1.63551e-21)
(0.0454343 -0.000152982 -2.32464e-20)
(0.0435264 -0.000142768 3.08722e-19)
(0.0473804 -0.000154338 -6.97647e-21)
(0.0448525 -0.000148539 -1.81837e-19)
(0.0450776 -0.00015156 -6.40525e-21)
(0.0432328 -0.000144743 2.10691e-19)
(0.0470068 -0.000153151 2.44437e-20)
(0.0445102 -0.000147433 -3.0888e-21)
(0.0447273 -0.000150407 -1.72829e-21)
(0.0428992 -0.000143687 -2.91281e-22)
(0.046636 -0.000151972 4.25847e-20)
(0.0441705 -0.000146335 -1.92955e-19)
(0.0443793 -0.000149218 1.89458e-19)
(0.04258 -0.000143821 9.19084e-22)
(0.046268 -0.000150802 7.92252e-21)
(0.0438352 -0.000145272 -2.48422e-19)
(0.0439639 -0.000147228 -2.59676e-19)
(0.0441598 -0.000162223 1.64568e-19)
(0.0405275 4.02677e-05 1.72614e-18)
(0.0459027 -0.000149641 4.43676e-20)
(0.0435004 -0.000144174 -2.7458e-19)
(0.0436274 -0.000146606 1.69424e-19)
(0.0437007 -0.000149267 4.08531e-19)
(0.0419105 -0.000141237 2.83604e-19)
(0.0455403 -0.000148489 6.65942e-20)
(0.0431683 -0.000143098 -3.66359e-21)
(0.0432889 -0.000145535 1.13102e-22)
(0.0433531 -0.000147086 1.67383e-20)
(0.0416225 -0.0001549 -2.27393e-19)
(0.0451808 -0.000147294 -1.84142e-20)
(0.0428373 -0.00014194 2.69798e-19)
(0.0430145 -0.000144064 1.13497e-20)
(0.0413082 -0.000153502 -4.35371e-19)
)
;

boundaryField
{
    inlet
    {
        type            calculated;
        value           uniform (0.0741049 0 0);
    }
    outlet2
    {
        type            calculated;
        value           uniform (0.0741049 0 0);
    }
    outlet1
    {
        type            calculated;
        value           nonuniform List<vector> 0();
    }
    wall
    {
        type            calculated;
        value           uniform (0.0741049 0 0);
    }
    symmetryBottom
    {
        type            symmetry;
    }
    symmetryZ0
    {
        type            symmetry;
    }
    symmetryZ05
    {
        type            symmetry;
    }
    procBoundary1to0
    {
        type            processor;
        value           uniform (0.0741049 0 0);
    }
}


// ************************************************************************* //
