/*--------------------------------*- C++ -*----------------------------------*\
| =========                 |                                                 |
| \\      /  F ield         | OpenFOAM: The Open Source CFD Toolbox           |
|  \\    /   O peration     | Version:  2412                                  |
|   \\  /    A nd           | Website:  www.openfoam.com                      |
|    \\/     M anipulation  |                                                 |
\*---------------------------------------------------------------------------*/
FoamFile
{
    version     2.0;
    format      ascii;
    arch        "LSB;label=32;scalar=64";
    class       volVectorField;
    location    "8.4e-06";
    object      U;
}
// * * * * * * * * * * * * * * * * * * * * * * * * * * * * * * * * * * * * * //

dimensions      [0 0 0 0 0 0 0];

internalField   nonuniform List<vector> 
84
(
(2640.19 0.00509226 -8.96756e-17)
(2570.88 -0.113328 6.04109e-15)
(2606.89 0.00500076 -2.0463e-14)
(2640.19 -7.18036 -9.49686e-17)
(2571.36 -9.87514 6.34655e-15)
(2605.27 -8.67282 -2.20348e-14)
(2640.19 -7.18038 1.24829e-16)
(2571.3 -9.88489 -8.3304e-15)
(2605.46 -8.61078 2.87816e-14)
(2640.19 -7.18057 -1.63028e-16)
(2571.24 -9.88634 1.08673e-14)
(2605.66 -8.60891 -3.77507e-14)
(2640.19 -7.18057 -2.89851e-16)
(2571.18 -9.88739 1.92217e-14)
(2605.86 -8.60753 -6.46787e-14)
(2640.19 -7.18057 1.58784e-16)
(2571.12 -9.88845 -1.05207e-14)
(2606.06 -8.60604 3.58774e-14)
(2640.19 -7.18058 -2.12445e-16)
(2571.06 -9.88951 1.41831e-14)
(2606.25 -8.60456 -4.81999e-14)
(2640.19 -7.18058 -2.46616e-16)
(2571 -9.89056 1.64525e-14)
(2606.44 -8.60311 -5.5787e-14)
(2640.19 -7.18058 9.18191e-17)
(2570.94 -9.89162 -6.1156e-15)
(2606.63 -8.60168 2.03717e-14)
(2640.19 -7.18059 -2.09349e-16)
(2570.89 -9.89266 1.41349e-14)
(2606.82 -8.60026 -4.83598e-14)
(2640.19 -7.1806 -5.42893e-16)
(2570.83 -9.8937 3.65184e-14)
(2607 -8.59886 -1.22996e-13)
(2640.2 -7.18654 1.40466e-19)
(2570.77 -9.79174 -2.68332e-17)
(2607.19 -8.54686 2.73277e-16)
(2629.13 -0.151722 -8.18102e-17)
(2627.56 -0.1535 1.09014e-14)
(2625.97 -0.155057 -8.40093e-16)
(2630.53 -8.42169 -4.66667e-17)
(2628.91 -8.57145 1.04214e-14)
(2627.33 -8.53205 -9.64132e-16)
(2630.43 -8.56156 -5.49915e-16)
(2628.81 -8.70693 -3.7097e-15)
(2627.26 -8.74995 -1.59932e-14)
(2630.3 -8.56547 1.05921e-15)
(2628.59 -8.67458 -2.0047e-16)
(2629.02 -9.48046 -1.33476e-15)
(2625.21 2.68782 2.24246e-14)
(2630.17 -8.56595 -2.78799e-15)
(2628.48 -8.70257 9.51143e-17)
(2628.72 -8.85117 -1.34498e-15)
(2626.97 -8.61654 1.86324e-14)
(2630.05 -8.56718 -3.87257e-16)
(2628.36 -8.70442 -1.06557e-14)
(2628.59 -8.83782 -3.73507e-16)
(2626.87 -8.79472 1.28018e-14)
(2629.92 -8.56843 1.36757e-15)
(2628.24 -8.7056 -1.82388e-16)
(2628.47 -8.83888 -1.01566e-16)
(2626.75 -8.79808 -1.78354e-17)
(2629.79 -8.56968 2.40134e-15)
(2628.12 -8.70685 -1.14807e-14)
(2628.34 -8.83738 1.12206e-14)
(2626.64 -8.87193 5.66957e-17)
(2629.66 -8.5709 4.5028e-16)
(2628 -8.70932 -1.48934e-14)
(2628.13 -8.80117 -1.55232e-14)
(2628.3 -9.65516 9.79478e-15)
(2625.66 2.60883 1.11832e-13)
(2629.53 -8.57217 2.54159e-15)
(2627.88 -8.70961 -1.65875e-14)
(2628.01 -8.83122 1.02057e-14)
(2628.09 -8.97669 2.45685e-14)
(2626.38 -8.8508 1.77725e-14)
(2629.4 -8.57343 3.84501e-15)
(2627.76 -8.71072 -2.23012e-16)
(2627.88 -8.83483 6.86594e-18)
(2627.96 -8.91603 1.01464e-15)
(2626.29 -9.77387 -1.43481e-14)
(2629.27 -8.57169 -1.0716e-15)
(2627.63 -8.70657 1.65493e-14)
(2627.84 -8.80115 6.93377e-16)
(2626.17 -9.75889 -2.76788e-14)
)
;

boundaryField
{
    inlet
    {
        type            calculated;
        value           uniform (0 0 0);
    }
    outlet2
    {
        type            calculated;
        value           uniform (0 0 0);
    }
    outlet1
    {
        type            calculated;
        value           nonuniform List<vector> 0();
    }
    wall
    {
        type            calculated;
        value           uniform (0 0 0);
    }
    symmetryBottom
    {
        type            symmetry;
    }
    symmetryZ0
    {
        type            symmetry;
    }
    symmetryZ05
    {
        type            symmetry;
    }
    procBoundary1to0
    {
        type            processor;
        value           uniform (0 0 0);
    }
}


// ************************************************************************* //
