/*--------------------------------*- C++ -*----------------------------------*\
| =========                 |                                                 |
| \\      /  F ield         | OpenFOAM: The Open Source CFD Toolbox           |
|  \\    /   O peration     | Version:  2412                                  |
|   \\  /    A nd           | Website:  www.openfoam.com                      |
|    \\/     M anipulation  |                                                 |
\*---------------------------------------------------------------------------*/
FoamFile
{
    version     2.0;
    format      ascii;
    arch        "LSB;label=32;scalar=64";
    class       volVectorField;
    location    "5.8e-06";
    object      rhoU_dof0;
}
// * * * * * * * * * * * * * * * * * * * * * * * * * * * * * * * * * * * * * //

dimensions      [0 0 0 0 0 0 0];

internalField   nonuniform List<vector> 
84
(
(0.0724397 0.000163661 1.65422e-19)
(0.0488522 0.000112724 -1.58806e-19)
(0.0510814 0.00011938 -2.84863e-19)
(0.0509456 0.000120804 1.76744e-19)
(0.0509548 0.000122603 -2.27378e-20)
(0.0509576 0.000124441 2.19706e-20)
(0.0509606 0.000126335 2.70795e-19)
(0.0512951 0.000126968 3.79497e-20)
(0.0763541 -0.000176542 1.6519e-19)
(0.0515565 -0.000123444 -1.61466e-19)
(0.0539428 -0.000130303 -3.6643e-19)
(0.0538437 -0.000132092 4.30814e-20)
(0.0538982 -0.000134241 -6.86862e-19)
(0.0539473 -0.000136447 1.5761e-19)
(0.0539983 -0.000138727 5.56932e-19)
(0.0543477 -0.000139379 1.12276e-19)
(0.0756213 -0.000159221 -6.72367e-19)
(0.0515793 -0.000137589 1.29173e-19)
(0.0536042 -0.000127878 2.13551e-19)
(0.05354 -0.000131486 -2.36605e-20)
(0.0535869 -0.000133491 -9.3187e-21)
(0.0536311 -0.000135679 2.689e-19)
(0.0536768 -0.000137934 -2.34691e-19)
(0.0540247 -0.000138583 -2.58018e-19)
(0.0753216 -0.00016482 -6.49358e-19)
(0.0510342 -0.000124586 3.04576e-19)
(0.0533768 -0.00013093 -3.26133e-20)
(0.053271 -0.000132745 -6.23262e-19)
(0.0533169 -0.000134916 6.15038e-19)
(0.0533571 -0.000137146 1.02758e-19)
(0.0537035 -0.000137793 -2.36617e-19)
(0.0751769 -0.000176774 -4.13761e-19)
(0.05073 -0.000123152 -1.05795e-19)
(0.0530735 -0.00013029 1.15161e-20)
(0.0529628 -0.000132047 3.51119e-21)
(0.0530037 -0.000134197 -2.19767e-19)
(0.0530388 -0.000136404 1.79172e-19)
(0.0533836 -0.000137048 3.86606e-19)
(0.0747619 -0.000169794 -2.47588e-19)
(0.0504425 -0.000118077 3.283e-19)
(0.052769 -0.000124998 -3.42192e-20)
(0.0526542 -0.000126708 3.92487e-19)
(0.05269 -0.000128802 -3.61469e-19)
(0.0527199 -0.000130951 3.03531e-19)
(0.0530632 -0.000131572 -6.61492e-19)
(0.0743433 -0.000135927 -8.8314e-23)
(0.0501555 -9.46783e-05 3.0546e-19)
(0.0524631 -0.000100085 -3.30213e-20)
(0.0523444 -0.000101458 9.29842e-22)
(0.0523751 -0.000103122 3.22815e-19)
(0.0523998 -0.00010483 4.15755e-20)
(0.0527415 -0.000105329 3.20677e-19)
(0.073766 -0.000101312 5.82829e-21)
(0.0500445 -9.18977e-05 4.30343e-21)
(0.0521443 -8.34839e-05 -1.71624e-21)
(0.0520431 -8.6112e-05 -4.37546e-21)
(0.0520675 -8.74378e-05 -9.04999e-22)
(0.0520873 -8.89016e-05 2.01638e-21)
(0.0524276 -8.93241e-05 -2.64216e-19)
(0.0733822 -9.6277e-05 8.78746e-19)
(0.0495971 -7.2418e-05 -8.14917e-20)
(0.0518622 -7.61981e-05 -6.76628e-19)
(0.0517359 -7.72403e-05 -2.12082e-19)
(0.0517567 -7.84988e-05 3.70152e-19)
(0.0520952 -7.88769e-05 -4.17767e-20)
(0.0731621 -0.000101017 -3.1185e-19)
(0.0493366 -6.99652e-05 2.91928e-20)
(0.0515976 -7.40597e-05 -3.12256e-19)
(0.0514678 -7.50029e-05 3.44514e-19)
(0.0514848 -7.61744e-05 5.77877e-19)
(0.0518218 -7.65474e-05 -6.19368e-20)
(0.0726595 -0.000106516 -4.31939e-19)
(0.0490543 -8.00583e-05 4.00077e-20)
(0.0512868 -8.37025e-05 -1.67323e-21)
(0.0511533 -8.48515e-05 6.08484e-19)
(0.0511651 -8.61903e-05 6.25218e-19)
(0.0515006 -8.66105e-05 2.16359e-20)
(0.0718868 -1.51326e-05 -3.06292e-20)
(0.0488648 -0.000107854 2.01312e-21)
(0.0509854 -9.71888e-05 -9.34695e-23)
(0.0508578 -9.96641e-05 3.65798e-19)
(0.0508643 -0.000101135 -3.89179e-20)
(0.0508648 -0.000102713 2.53954e-21)
(0.0511991 -0.000103219 -3.08538e-19)
)
;

boundaryField
{
    inlet
    {
        type            calculated;
        value           nonuniform List<vector> 0();
    }
    outlet2
    {
        type            calculated;
        value           uniform (0.0741049 0 0);
    }
    outlet1
    {
        type            calculated;
        value           uniform (0.0741049 0 0);
    }
    wall
    {
        type            calculated;
        value           uniform (0.0741049 0 0);
    }
    symmetryBottom
    {
        type            symmetry;
    }
    symmetryZ0
    {
        type            symmetry;
    }
    symmetryZ05
    {
        type            symmetry;
    }
    procBoundary0to1
    {
        type            processor;
        value           uniform (0.0741049 0 0);
    }
}


// ************************************************************************* //
