/*--------------------------------*- C++ -*----------------------------------*\
| =========                 |                                                 |
| \\      /  F ield         | OpenFOAM: The Open Source CFD Toolbox           |
|  \\    /   O peration     | Version:  2412                                  |
|   \\  /    A nd           | Website:  www.openfoam.com                      |
|    \\/     M anipulation  |                                                 |
\*---------------------------------------------------------------------------*/
FoamFile
{
    version     2.0;
    format      ascii;
    arch        "LSB;label=32;scalar=64";
    class       volScalarField;
    location    "7.7e-06";
    object      E;
}
// * * * * * * * * * * * * * * * * * * * * * * * * * * * * * * * * * * * * * //

dimensions      [0 0 0 0 0 0 0];

internalField   nonuniform List<scalar> 
84
(
99.4424
7.81568
33.0651
99.4885
7.84036
33.0933
99.4768
7.83752
33.0875
99.4768
7.83752
33.0875
99.4768
7.83752
33.0875
99.4768
7.83752
33.0875
99.4768
7.83752
33.0875
99.4768
7.83752
33.0875
99.4768
7.83752
33.0875
99.4768
7.83752
33.0875
99.4768
7.83745
33.0875
99.477
7.83096
33.0851
64.9283
59.8751
60.8272
69.8374
64.0847
65.1335
69.3148
63.6363
64.668
68.7952
63.191
63.7672
59.7415
68.2783
62.7479
63.3099
63.786
67.7636
62.3065
62.8544
63.3282
67.2613
61.875
62.4092
62.8808
66.7746
61.4565
61.9778
62.4432
66.3222
61.0612
61.5714
61.5607
60.014
65.713
60.5526
61.044
61.0261
61.5141
65.2312
60.1374
60.6159
60.5943
61.2666
64.7588
59.7307
60.197
60.6558
)
;

boundaryField
{
    inlet
    {
        type            calculated;
        value           uniform 0;
    }
    outlet2
    {
        type            calculated;
        value           uniform 0;
    }
    outlet1
    {
        type            calculated;
        value           nonuniform List<scalar> 0();
    }
    wall
    {
        type            calculated;
        value           uniform 0;
    }
    symmetryBottom
    {
        type            symmetry;
    }
    symmetryZ0
    {
        type            symmetry;
    }
    symmetryZ05
    {
        type            symmetry;
    }
    procBoundary1to0
    {
        type            processor;
        value           uniform 0;
    }
}


// ************************************************************************* //
