/*--------------------------------*- C++ -*----------------------------------*\
| =========                 |                                                 |
| \\      /  F ield         | OpenFOAM: The Open Source CFD Toolbox           |
|  \\    /   O peration     | Version:  2412                                  |
|   \\  /    A nd           | Website:  www.openfoam.com                      |
|    \\/     M anipulation  |                                                 |
\*---------------------------------------------------------------------------*/
FoamFile
{
    version     2.0;
    format      ascii;
    arch        "LSB;label=32;scalar=64";
    class       volVectorField;
    location    "7.7e-06";
    object      rhoU;
}
// * * * * * * * * * * * * * * * * * * * * * * * * * * * * * * * * * * * * * //

dimensions      [0 0 0 0 0 0 0];

internalField   nonuniform List<vector> 
84
(
(0.0741136 -8.61742e-07 0)
(0.00611018 -6.85373e-07 0)
(0.0247554 -6.1188e-07 -1.11656e-19)
(0.074148 -0.000159861 0)
(0.00612891 -2.93607e-05 0)
(0.0247765 -7.0814e-05 -1.12424e-19)
(0.0741393 -0.00015904 0)
(0.00612676 -2.91723e-05 0)
(0.0247722 -7.04176e-05 1.50658e-19)
(0.0741393 -0.00015904 0)
(0.00612676 -2.91722e-05 0)
(0.0247722 -7.04176e-05 -2.13336e-19)
(0.0741393 -0.00015904 0)
(0.00612676 -2.91722e-05 0)
(0.0247722 -7.04176e-05 -3.25602e-19)
(0.0741393 -0.00015904 0)
(0.00612676 -2.91722e-05 0)
(0.0247722 -7.04176e-05 2.08435e-19)
(0.0741393 -0.00015904 0)
(0.00612676 -2.91722e-05 0)
(0.0247722 -7.04176e-05 -2.43775e-19)
(0.0741393 -0.00015904 0)
(0.00612676 -2.91722e-05 0)
(0.0247722 -7.04176e-05 -2.7565e-19)
(0.0741393 -0.00015904 0)
(0.00612676 -2.91722e-05 0)
(0.0247722 -7.04176e-05 1.13156e-19)
(0.0741393 -0.00015904 0)
(0.00612676 -2.91722e-05 0)
(0.0247722 -7.04175e-05 -2.46249e-19)
(0.0741393 -0.00015904 0)
(0.00612671 -2.91666e-05 0)
(0.0247722 -7.04153e-05 -6.42756e-19)
(0.0741395 -0.000159059 0)
(0.00612187 -2.86953e-05 0)
(0.0247704 -7.02357e-05 0)
(0.0485015 0.000150021 1.98567e-20)
(0.0447646 0.000128763 1.62039e-19)
(0.045468 0.000131673 1.73259e-20)
(0.0521383 -0.000155493 1.9212e-20)
(0.0478862 -0.000145217 1.80031e-19)
(0.0486606 -0.000147169 -5.98798e-21)
(0.0517505 -0.000154417 -2.66745e-20)
(0.047553 -0.000144235 -8.57178e-20)
(0.0483149 -0.000145949 -2.59731e-19)
(0.0513649 -0.000153307 3.50584e-20)
(0.0472222 -0.000143264 -5.94216e-21)
(0.0476459 -0.00014652 5.21361e-22)
(0.0446572 1.41013e-05 2.10485e-19)
(0.0509813 -0.000152265 -3.33576e-20)
(0.0468929 -0.000142348 1.41573e-21)
(0.0473062 -0.000145564 -2.70221e-21)
(0.0476601 -0.00014635 2.12083e-19)
(0.050597 -0.00014601 -3.4476e-20)
(0.0465631 -0.000137041 -1.70194e-19)
(0.0469659 -0.000140122 1.70254e-20)
(0.0473181 -0.000140883 1.94852e-19)
(0.0502111 -0.000114393 4.01414e-20)
(0.0462319 -0.000109777 -5.32392e-21)
(0.0466241 -0.000111989 6.23663e-22)
(0.0469746 -0.000112613 -1.52509e-21)
(0.0498362 -9.55125e-05 4.82766e-20)
(0.0459098 -9.34248e-05 -1.75707e-19)
(0.046292 -9.51545e-05 1.9589e-19)
(0.0466379 -9.55319e-05 3.29359e-21)
(0.049435 -8.24261e-05 -1.93307e-20)
(0.0455637 -8.21019e-05 -2.16816e-19)
(0.0459352 -8.3432e-05 -2.01596e-19)
(0.0459264 -8.46599e-05 2.44849e-19)
(0.0448724 1.48008e-05 1.40273e-18)
(0.0491149 -7.8945e-05 4.18963e-20)
(0.0452931 -7.91077e-05 -2.18686e-19)
(0.0456554 -8.02761e-05 1.90909e-19)
(0.045643 -8.1405e-05 3.00583e-19)
(0.0460077 -8.27348e-05 2.13733e-19)
(0.0487295 -9.12107e-05 1.06391e-19)
(0.0449613 -8.95648e-05 -9.4992e-21)
(0.0453133 -9.10861e-05 9.03218e-22)
(0.0452977 -9.25274e-05 -6.70481e-22)
(0.0457964 -0.000102875 -2.17975e-19)
(0.048373 -0.000110869 1.8453e-22)
(0.0446541 -0.000106339 2.158e-19)
(0.0449969 -0.000108375 -3.0821e-20)
(0.045338 -0.000108914 -3.04415e-19)
)
;

boundaryField
{
    inlet
    {
        type            calculated;
        value           uniform (0 0 0);
    }
    outlet2
    {
        type            calculated;
        value           uniform (0 0 0);
    }
    outlet1
    {
        type            calculated;
        value           nonuniform List<vector> 0();
    }
    wall
    {
        type            calculated;
        value           uniform (0 0 0);
    }
    symmetryBottom
    {
        type            symmetry;
    }
    symmetryZ0
    {
        type            symmetry;
    }
    symmetryZ05
    {
        type            symmetry;
    }
    procBoundary1to0
    {
        type            processor;
        value           uniform (0 0 0);
    }
}


// ************************************************************************* //
