/*--------------------------------*- C++ -*----------------------------------*\
| =========                 |                                                 |
| \\      /  F ield         | OpenFOAM: The Open Source CFD Toolbox           |
|  \\    /   O peration     | Version:  2412                                  |
|   \\  /    A nd           | Website:  www.openfoam.com                      |
|    \\/     M anipulation  |                                                 |
\*---------------------------------------------------------------------------*/
FoamFile
{
    version     2.0;
    format      ascii;
    arch        "LSB;label=32;scalar=64";
    class       volVectorField;
    location    "7.7e-06";
    object      U;
}
// * * * * * * * * * * * * * * * * * * * * * * * * * * * * * * * * * * * * * //

dimensions      [0 0 0 0 0 0 0];

internalField   nonuniform List<vector> 
84
(
(2636.39 -0.0306541 0)
(2514.27 -0.282023 0)
(2623.89 -0.064855 -1.18347e-14)
(2636.39 -5.68399 0)
(2514.52 -12.0459 0)
(2623.89 -7.49939 -1.1906e-14)
(2636.39 -5.65545 0)
(2514.5 -11.9727 0)
(2623.89 -7.45869 1.59578e-14)
(2636.39 -5.65544 0)
(2514.5 -11.9727 0)
(2623.89 -7.45869 -2.25967e-14)
(2636.39 -5.65544 0)
(2514.5 -11.9727 0)
(2623.89 -7.45869 -3.4488e-14)
(2636.39 -5.65544 0)
(2514.5 -11.9727 0)
(2623.89 -7.45869 2.20776e-14)
(2636.39 -5.65544 0)
(2514.5 -11.9727 0)
(2623.89 -7.45869 -2.58209e-14)
(2636.39 -5.65544 0)
(2514.5 -11.9727 0)
(2623.89 -7.45869 -2.91971e-14)
(2636.39 -5.65544 0)
(2514.5 -11.9727 0)
(2623.89 -7.45869 1.19856e-14)
(2636.39 -5.65544 0)
(2514.5 -11.9726 0)
(2623.89 -7.45869 -2.60829e-14)
(2636.39 -5.65545 0)
(2514.5 -11.9705 0)
(2623.89 -7.45846 -6.80813e-14)
(2636.39 -5.6561 0)
(2514.43 -11.786 0)
(2623.9 -7.43998 0)
(2628.93 8.13164 1.0763e-15)
(2626.71 7.5556 9.50819e-15)
(2627.21 7.60826 1.00111e-15)
(2631.69 -7.84854 9.69729e-16)
(2629.27 -7.97338 9.88488e-15)
(2629.79 -7.9535 -3.23611e-16)
(2631.57 -7.85224 -1.35642e-15)
(2629.16 -7.97462 -4.73926e-15)
(2629.67 -7.9437 -1.41366e-14)
(2631.44 -7.85396 1.79605e-15)
(2629.05 -7.97608 -3.30825e-16)
(2629.44 -8.08602 2.87724e-17)
(2628.28 0.829926 1.2388e-14)
(2631.32 -7.85891 -1.7217e-15)
(2628.94 -7.98044 7.93697e-17)
(2629.33 -8.09059 -1.50192e-16)
(2629.44 -8.07421 1.17007e-14)
(2631.16 -7.59289 -1.79283e-15)
(2628.8 -7.73687 -9.60854e-15)
(2629.17 -7.84411 9.53092e-16)
(2629.28 -7.82834 1.08272e-14)
(2630.87 -5.99374 2.10326e-15)
(2628.49 -6.2413 -3.02689e-16)
(2628.87 -6.3144 3.51648e-17)
(2628.98 -6.30249 -8.53533e-17)
(2630.67 -5.04175 2.54834e-15)
(2628.28 -5.34845 -1.0059e-14)
(2628.65 -5.40327 1.11234e-14)
(2628.76 -5.3847 1.85645e-16)
(2630.41 -4.38586 -1.02858e-15)
(2627.89 -4.73524 -1.25049e-14)
(2628.29 -4.77376 -1.15348e-14)
(2628.25 -4.84487 1.40121e-14)
(2628.25 0.866908 8.21601e-14)
(2630.63 -4.22835 2.244e-15)
(2628.42 -4.59074 -1.26907e-14)
(2628.77 -4.62217 1.09923e-14)
(2628.74 -4.6884 1.73116e-14)
(2628.89 -4.72749 1.22127e-14)
(2630.51 -4.92373 5.74321e-15)
(2628.25 -5.23559 -5.55284e-16)
(2628.6 -5.28386 5.23952e-17)
(2628.57 -5.36925 -3.89072e-17)
(2628.76 -5.90512 -1.2512e-14)
(2630.43 -6.02886 1.00344e-17)
(2628.17 -6.25873 1.27012e-14)
(2628.52 -6.33082 -1.80043e-15)
(2628.64 -6.31468 -1.76496e-14)
)
;

boundaryField
{
    inlet
    {
        type            calculated;
        value           uniform (0 0 0);
    }
    outlet2
    {
        type            calculated;
        value           uniform (0 0 0);
    }
    outlet1
    {
        type            calculated;
        value           nonuniform List<vector> 0();
    }
    wall
    {
        type            calculated;
        value           uniform (0 0 0);
    }
    symmetryBottom
    {
        type            symmetry;
    }
    symmetryZ0
    {
        type            symmetry;
    }
    symmetryZ05
    {
        type            symmetry;
    }
    procBoundary1to0
    {
        type            processor;
        value           uniform (0 0 0);
    }
}


// ************************************************************************* //
