/*--------------------------------*- C++ -*----------------------------------*\
| =========                 |                                                 |
| \\      /  F ield         | OpenFOAM: The Open Source CFD Toolbox           |
|  \\    /   O peration     | Version:  2412                                  |
|   \\  /    A nd           | Website:  www.openfoam.com                      |
|    \\/     M anipulation  |                                                 |
\*---------------------------------------------------------------------------*/
FoamFile
{
    version     2.0;
    format      ascii;
    arch        "LSB;label=32;scalar=64";
    class       volScalarField;
    location    "4.6e-06";
    object      rho;
}
// * * * * * * * * * * * * * * * * * * * * * * * * * * * * * * * * * * * * * //

dimensions      [0 0 0 0 0 0 0];

internalField   nonuniform List<scalar> 
84
(
2.81098e-05
1.09242e-05
1.38279e-05
2.81153e-05
1.09302e-05
1.38333e-05
2.81139e-05
1.09295e-05
1.38324e-05
2.81139e-05
1.09295e-05
1.38324e-05
2.81139e-05
1.09295e-05
1.38324e-05
2.81139e-05
1.09295e-05
1.38324e-05
2.81139e-05
1.09295e-05
1.38324e-05
2.81139e-05
1.09295e-05
1.38324e-05
2.81139e-05
1.09295e-05
1.38324e-05
2.81139e-05
1.09295e-05
1.38324e-05
2.81139e-05
1.09295e-05
1.38324e-05
2.8114e-05
1.09281e-05
1.38316e-05
2.1526e-05
2.08864e-05
2.10134e-05
2.24512e-05
2.17455e-05
2.18794e-05
2.23538e-05
2.1655e-05
2.17875e-05
2.22568e-05
2.15649e-05
2.16114e-05
2.08391e-05
2.216e-05
2.1475e-05
2.15198e-05
2.1616e-05
2.20633e-05
2.13852e-05
2.14282e-05
2.15241e-05
2.19668e-05
2.12956e-05
2.13369e-05
2.14325e-05
2.18716e-05
2.12072e-05
2.12468e-05
2.13417e-05
2.17729e-05
2.11156e-05
2.11533e-05
2.11561e-05
2.08725e-05
2.16846e-05
2.10335e-05
2.10697e-05
2.10713e-05
2.11671e-05
2.15877e-05
2.09435e-05
2.0978e-05
2.09784e-05
2.10941e-05
2.14948e-05
2.0857e-05
2.08899e-05
2.09839e-05
)
;

boundaryField
{
    inlet
    {
        type            calculated;
        value           uniform 0;
    }
    outlet2
    {
        type            calculated;
        value           uniform 0;
    }
    outlet1
    {
        type            calculated;
        value           nonuniform List<scalar> 0();
    }
    wall
    {
        type            calculated;
        value           uniform 0;
    }
    symmetryBottom
    {
        type            symmetry;
    }
    symmetryZ0
    {
        type            symmetry;
    }
    symmetryZ05
    {
        type            symmetry;
    }
    procBoundary1to0
    {
        type            processor;
        value           uniform 0;
    }
}


// ************************************************************************* //
