/*--------------------------------*- C++ -*----------------------------------*\
| =========                 |                                                 |
| \\      /  F ield         | OpenFOAM: The Open Source CFD Toolbox           |
|  \\    /   O peration     | Version:  2412                                  |
|   \\  /    A nd           | Website:  www.openfoam.com                      |
|    \\/     M anipulation  |                                                 |
\*---------------------------------------------------------------------------*/
FoamFile
{
    version     2.0;
    format      ascii;
    arch        "LSB;label=32;scalar=64";
    class       volVectorField;
    location    "4.6e-06";
    object      rhoU;
}
// * * * * * * * * * * * * * * * * * * * * * * * * * * * * * * * * * * * * * //

dimensions      [0 0 0 0 0 0 0];

internalField   nonuniform List<vector> 
84
(
(0.0741084 -3.50954e-07 0)
(0.0285743 -5.45196e-07 0)
(0.0363104 -4.51259e-07 -1.14761e-19)
(0.0741227 -0.000107568 0)
(0.0285902 -5.32674e-05 0)
(0.0363247 -6.36022e-05 -1.10074e-19)
(0.0741191 -0.000107218 0)
(0.0285882 -5.30804e-05 0)
(0.0363225 -6.33834e-05 1.50664e-19)
(0.0741191 -0.000107218 0)
(0.0285882 -5.30804e-05 0)
(0.0363225 -6.33834e-05 -1.93674e-19)
(0.0741191 -0.000107218 0)
(0.0285882 -5.30804e-05 0)
(0.0363225 -6.33834e-05 -3.05261e-19)
(0.0741191 -0.000107218 0)
(0.0285882 -5.30804e-05 0)
(0.0363225 -6.33834e-05 1.89697e-19)
(0.0741191 -0.000107218 0)
(0.0285882 -5.30804e-05 0)
(0.0363225 -6.33834e-05 -2.2412e-19)
(0.0741191 -0.000107218 0)
(0.0285882 -5.30804e-05 0)
(0.0363225 -6.33834e-05 -2.57644e-19)
(0.0741191 -0.000107218 0)
(0.0285882 -5.30804e-05 0)
(0.0363225 -6.33834e-05 1.10838e-19)
(0.0741191 -0.000107218 0)
(0.0285882 -5.30804e-05 0)
(0.0363225 -6.33834e-05 -2.21818e-19)
(0.0741191 -0.000107218 0)
(0.0285882 -5.30781e-05 0)
(0.0363224 -6.33819e-05 -5.78554e-19)
(0.0741193 -0.000107232 0)
(0.0285846 -5.2732e-05 0)
(0.0363202 -6.31617e-05 0)
(0.0566486 0.00010428 9.34509e-21)
(0.0549467 9.67757e-05 1.11343e-19)
(0.0552839 9.75658e-05 1.14412e-20)
(0.0591194 -0.000105287 9.00469e-21)
(0.05724 -0.000103553 1.2058e-19)
(0.0575959 -0.000104048 -2.53559e-21)
(0.0588614 -0.000104863 -1.28967e-20)
(0.0570004 -0.00010314 -5.58339e-20)
(0.0573524 -0.000103547 -2.1971e-19)
(0.0586043 -0.000104429 1.65318e-20)
(0.0567617 -0.00010273 -2.69304e-21)
(0.056886 -0.000104398 1.54905e-22)
(0.0548403 5.74925e-06 1.80174e-19)
(0.0583479 -0.00010402 -3.34296e-20)
(0.0565237 -0.000102342 6.47835e-22)
(0.0566433 -0.000103998 -1.84051e-21)
(0.0568982 -0.000104334 1.8949e-19)
(0.0580912 -9.91509e-05 -1.62604e-20)
(0.0562853 -9.78407e-05 -1.16348e-19)
(0.0564003 -9.94237e-05 5.44076e-21)
(0.0566544 -9.97472e-05 1.25598e-19)
(0.0578336 -7.84342e-05 1.96685e-20)
(0.0560461 -7.85614e-05 -1.5945e-21)
(0.0561565 -7.9764e-05 -2.73763e-22)
(0.0564098 -8.00266e-05 -9.91681e-22)
(0.0575806 -6.54931e-05 2.44449e-20)
(0.0558112 -6.65059e-05 -1.18321e-19)
(0.055917 -6.74818e-05 1.26332e-19)
(0.0561684 -6.7643e-05 1.56046e-21)
(0.0573183 -5.78041e-05 -9.06265e-21)
(0.0555668 -5.93309e-05 -1.77045e-19)
(0.0556679 -6.01495e-05 -1.642e-19)
(0.0556751 -6.10318e-05 1.99415e-19)
(0.0549279 6.0818e-06 1.06978e-18)
(0.057087 -5.67124e-05 2.08631e-20)
(0.0553541 -5.8303e-05 -1.72292e-19)
(0.055451 -5.90763e-05 1.2558e-19)
(0.0554551 -5.99198e-05 2.51822e-19)
(0.0557088 -6.04271e-05 1.58109e-19)
(0.0568307 -6.46889e-05 5.08747e-20)
(0.0551157 -6.56902e-05 -2.49364e-21)
(0.055208 -6.6612e-05 3.08315e-22)
(0.0552092 -6.76289e-05 -2.49219e-22)
(0.0555154 -7.17822e-05 -1.82991e-19)
(0.0565851 -7.84435e-05 1.28078e-22)
(0.0548873 -7.84147e-05 1.701e-19)
(0.0549753 -7.95742e-05 -1.26311e-20)
(0.0552243 -7.98084e-05 -2.53564e-19)
)
;

boundaryField
{
    inlet
    {
        type            calculated;
        value           uniform (0 0 0);
    }
    outlet2
    {
        type            calculated;
        value           uniform (0 0 0);
    }
    outlet1
    {
        type            calculated;
        value           nonuniform List<vector> 0();
    }
    wall
    {
        type            calculated;
        value           uniform (0 0 0);
    }
    symmetryBottom
    {
        type            symmetry;
    }
    symmetryZ0
    {
        type            symmetry;
    }
    symmetryZ05
    {
        type            symmetry;
    }
    procBoundary1to0
    {
        type            processor;
        value           uniform (0 0 0);
    }
}


// ************************************************************************* //
