/*--------------------------------*- C++ -*----------------------------------*\
| =========                 |                                                 |
| \\      /  F ield         | OpenFOAM: The Open Source CFD Toolbox           |
|  \\    /   O peration     | Version:  2412                                  |
|   \\  /    A nd           | Website:  www.openfoam.com                      |
|    \\/     M anipulation  |                                                 |
\*---------------------------------------------------------------------------*/
FoamFile
{
    version     2.0;
    format      ascii;
    arch        "LSB;label=32;scalar=64";
    class       volScalarField;
    location    "9.1e-06";
    object      rho;
}
// * * * * * * * * * * * * * * * * * * * * * * * * * * * * * * * * * * * * * //

dimensions      [0 0 0 0 0 0 0];

internalField   nonuniform List<scalar> 
84
(
2.88388e-05
1.49474e-05
1.59519e-05
1.59083e-05
1.59149e-05
1.59207e-05
1.59121e-05
1.61017e-05
3.08196e-05
1.59981e-05
1.70868e-05
1.70577e-05
1.70827e-05
1.71073e-05
1.7119e-05
1.73189e-05
3.04193e-05
1.60193e-05
1.6945e-05
1.69282e-05
1.69507e-05
1.69734e-05
1.69831e-05
1.71818e-05
3.00919e-05
1.57775e-05
1.6828e-05
1.67969e-05
1.68188e-05
1.68258e-05
1.70231e-05
3.01115e-05
1.56199e-05
1.66801e-05
1.66459e-05
1.66654e-05
1.66696e-05
1.68657e-05
2.98579e-05
1.54832e-05
1.65325e-05
1.64964e-05
1.65134e-05
1.65149e-05
1.67096e-05
2.96026e-05
1.53484e-05
1.63861e-05
1.63481e-05
1.63627e-05
1.63616e-05
1.65551e-05
2.92719e-05
1.52774e-05
1.62352e-05
1.62015e-05
1.62133e-05
1.62097e-05
1.64019e-05
2.89893e-05
1.50959e-05
1.61041e-05
1.60636e-05
1.60593e-05
1.62501e-05
2.88621e-05
1.49531e-05
1.59598e-05
1.5917e-05
1.59102e-05
1.60997e-05
2.85962e-05
1.4822e-05
1.58162e-05
1.57717e-05
1.57625e-05
1.59507e-05
2.80963e-05
1.47248e-05
1.56711e-05
1.56267e-05
1.56295e-05
1.56161e-05
1.58032e-05
)
;

boundaryField
{
    inlet
    {
        type            calculated;
        value           nonuniform List<scalar> 0();
    }
    outlet2
    {
        type            calculated;
        value           uniform 0;
    }
    outlet1
    {
        type            calculated;
        value           uniform 0;
    }
    wall
    {
        type            calculated;
        value           uniform 0;
    }
    symmetryBottom
    {
        type            symmetry;
    }
    symmetryZ0
    {
        type            symmetry;
    }
    symmetryZ05
    {
        type            symmetry;
    }
    procBoundary0to1
    {
        type            processor;
        value           uniform 0;
    }
}


// ************************************************************************* //
