/*--------------------------------*- C++ -*----------------------------------*\
| =========                 |                                                 |
| \\      /  F ield         | OpenFOAM: The Open Source CFD Toolbox           |
|  \\    /   O peration     | Version:  2412                                  |
|   \\  /    A nd           | Website:  www.openfoam.com                      |
|    \\/     M anipulation  |                                                 |
\*---------------------------------------------------------------------------*/
FoamFile
{
    version     2.0;
    format      ascii;
    arch        "LSB;label=32;scalar=64";
    class       volVectorField;
    location    "9.1e-06";
    object      rhoU_dof0;
}
// * * * * * * * * * * * * * * * * * * * * * * * * * * * * * * * * * * * * * //

dimensions      [0 0 0 0 0 0 0];

internalField   nonuniform List<vector> 
84
(
(0.0760303 -4.90057e-06 3.22434e-19)
(0.0392296 -2.99367e-06 -1.74432e-19)
(0.0419057 -3.19849e-06 -4.90088e-19)
(0.0417885 -3.28979e-06 2.45753e-19)
(0.0418062 -3.38971e-06 -2.45735e-20)
(0.0418212 -3.49388e-06 -1.65062e-20)
(0.0417982 -3.61152e-06 4.3836e-19)
(0.0423 -3.62436e-06 4.37389e-20)
(0.0812959 -0.000290071 3.14175e-19)
(0.0420121 -0.000155197 -1.69889e-19)
(0.0449135 -0.000167418 -6.10594e-19)
(0.0448347 -0.00016966 1.34944e-19)
(0.0449011 -0.000172458 -1.06994e-18)
(0.044966 -0.000175325 1.35316e-19)
(0.0449968 -0.000178424 8.56279e-19)
(0.045526 -0.000179907 1.5484e-19)
(0.080232 -0.000269108 -1.41397e-18)
(0.0420717 -0.000175048 1.60276e-19)
(0.0445385 -0.000167546 2.96828e-19)
(0.0444927 -0.000171602 -2.22133e-20)
(0.0445522 -0.000174367 -5.84022e-20)
(0.0446122 -0.000177299 4.63156e-19)
(0.0446376 -0.000180467 -3.15619e-19)
(0.0451636 -0.000181961 -3.87707e-19)
(0.0793621 -0.000259153 -1.39853e-18)
(0.0414303 -0.000160384 4.96429e-19)
(0.0442294 -0.000170422 3.37489e-20)
(0.0441453 -0.00017286 -9.99891e-19)
(0.0442035 -0.000175755 9.05949e-19)
(0.0442216 -0.000178869 1.59229e-19)
(0.0447441 -0.000180354 -3.01366e-19)
(0.0794173 -0.000292511 -7.43221e-19)
(0.0410131 -0.000156471 -1.45863e-19)
(0.0438383 -0.00016906 1.16601e-20)
(0.0437462 -0.000171328 1.87395e-20)
(0.0437978 -0.000174178 -3.18407e-19)
(0.0438087 -0.000177237 1.96039e-19)
(0.0443277 -0.000178714 5.78903e-19)
(0.0787447 -0.000290689 -4.86447e-19)
(0.0406519 -0.000155082 5.28779e-19)
(0.043448 -0.000167591 -8.7726e-20)
(0.0433507 -0.000169814 6.6102e-19)
(0.0433958 -0.000172615 -6.06332e-19)
(0.0433996 -0.000175619 5.36193e-19)
(0.0439152 -0.000177087 -9.2738e-19)
(0.0780672 -0.00028811 -4.39651e-20)
(0.0402959 -0.000153863 4.94096e-19)
(0.043061 -0.00016612 -3.69248e-20)
(0.0429588 -0.000168314 -3.36181e-20)
(0.0429974 -0.000171066 5.1722e-19)
(0.0429944 -0.000174015 3.11622e-20)
(0.0435065 -0.000175476 4.83756e-19)
(0.0771891 -0.00026482 6.71233e-21)
(0.0401098 -0.000170059 7.70161e-21)
(0.0426619 -0.000163054 -1.74555e-21)
(0.0425712 -0.000166912 -6.45677e-21)
(0.0426026 -0.000169527 1.90623e-21)
(0.0425928 -0.000172427 3.06213e-20)
(0.0431015 -0.000173879 -3.9037e-19)
(0.0764388 -0.000252615 1.67356e-18)
(0.0396293 -0.000155963 -3.69875e-20)
(0.0423155 -0.000165703 -9.78767e-19)
(0.0422068 -0.000167995 -3.61698e-19)
(0.0421951 -0.000170852 5.54369e-19)
(0.0427003 -0.000172296 -3.23142e-20)
(0.076103 -0.000285024 -5.76895e-19)
(0.0392518 -0.000152141 7.85567e-20)
(0.041934 -0.000164356 -5.4705e-19)
(0.0418191 -0.000166483 4.84047e-19)
(0.041801 -0.000169292 8.94648e-19)
(0.0423028 -0.000170728 -8.27006e-20)
(0.0753973 -0.000265945 -7.72827e-19)
(0.0389054 -0.000152367 5.44124e-20)
(0.0415546 -0.00016282 -6.80541e-20)
(0.0414351 -0.000164991 8.38559e-19)
(0.0414105 -0.000167746 9.55739e-19)
(0.0419089 -0.000169174 1.84709e-20)
(0.0740727 -1.57513e-05 -3.93003e-20)
(0.0386496 -0.0001815 3.12474e-21)
(0.0411708 -0.000156511 -4.43054e-20)
(0.0410517 -0.00016104 5.95641e-19)
(0.0410595 -0.000163442 -4.68239e-20)
(0.0410237 -0.000166137 4.05406e-20)
(0.0415189 -0.000167562 -4.87032e-19)
)
;

boundaryField
{
    inlet
    {
        type            calculated;
        value           nonuniform List<vector> 0();
    }
    outlet2
    {
        type            calculated;
        value           uniform (0.0741049 0 0);
    }
    outlet1
    {
        type            calculated;
        value           uniform (0.0741049 0 0);
    }
    wall
    {
        type            calculated;
        value           uniform (0.0741049 0 0);
    }
    symmetryBottom
    {
        type            symmetry;
    }
    symmetryZ0
    {
        type            symmetry;
    }
    symmetryZ05
    {
        type            symmetry;
    }
    procBoundary0to1
    {
        type            processor;
        value           uniform (0.0741049 0 0);
    }
}


// ************************************************************************* //
