/*--------------------------------*- C++ -*----------------------------------*\
| =========                 |                                                 |
| \\      /  F ield         | OpenFOAM: The Open Source CFD Toolbox           |
|  \\    /   O peration     | Version:  2412                                  |
|   \\  /    A nd           | Website:  www.openfoam.com                      |
|    \\/     M anipulation  |                                                 |
\*---------------------------------------------------------------------------*/
FoamFile
{
    version     2.0;
    format      ascii;
    arch        "LSB;label=32;scalar=64";
    class       volScalarField;
    location    "9.1e-06";
    object      T;
}
// * * * * * * * * * * * * * * * * * * * * * * * * * * * * * * * * * * * * * //

dimensions      [0 0 0 0 0 0 0];

internalField   nonuniform List<scalar> 
84
(
203.422
203.407
203.559
203.603
203.659
203.717
203.78
203.77
199.999
199.907
200.009
199.999
200
200
199.999
200.002
199.972
199.905
200.003
199.995
199.995
199.996
199.994
199.997
200.005
199.903
200.005
199.995
199.996
199.995
199.997
199.993
199.901
200.005
199.995
199.996
199.995
199.997
199.998
199.9
200.005
199.995
199.996
199.995
199.997
199.996
199.903
200.005
199.995
199.996
199.995
199.997
199.972
199.895
200.005
199.995
199.996
199.994
199.997
200.008
199.9
200.005
199.995
199.994
199.997
199.992
199.9
200.005
199.995
199.994
199.997
200.002
199.898
200.005
199.995
199.994
199.997
199.974
199.875
200.007
199.996
199.996
199.995
199.998
)
;

boundaryField
{
    inlet
    {
        type            calculated;
        value           nonuniform List<scalar> 0();
    }
    outlet2
    {
        type            calculated;
        value           uniform 0;
    }
    outlet1
    {
        type            calculated;
        value           uniform 0;
    }
    wall
    {
        type            calculated;
        value           uniform 0;
    }
    symmetryBottom
    {
        type            symmetry;
    }
    symmetryZ0
    {
        type            symmetry;
    }
    symmetryZ05
    {
        type            symmetry;
    }
    procBoundary0to1
    {
        type            processor;
        value           uniform 0;
    }
}


// ************************************************************************* //
