/*--------------------------------*- C++ -*----------------------------------*\
| =========                 |                                                 |
| \\      /  F ield         | OpenFOAM: The Open Source CFD Toolbox           |
|  \\    /   O peration     | Version:  2412                                  |
|   \\  /    A nd           | Website:  www.openfoam.com                      |
|    \\/     M anipulation  |                                                 |
\*---------------------------------------------------------------------------*/
FoamFile
{
    version     2.0;
    format      ascii;
    arch        "LSB;label=32;scalar=64";
    class       volScalarField;
    location    "1e-06";
    object      E_dof0;
}
// * * * * * * * * * * * * * * * * * * * * * * * * * * * * * * * * * * * * * //

dimensions      [0 0 0 0 0 0 0];

internalField   nonuniform List<scalar> 
84
(
99.4308
84.0828
84.6347
99.4318
84.0866
84.6384
99.4315
84.0864
84.6381
99.4315
84.0864
84.6381
99.4315
84.0864
84.6381
99.4315
84.0864
84.6381
99.4315
84.0864
84.6381
99.4315
84.0864
84.6381
99.4315
84.0864
84.6381
99.4315
84.0864
84.6381
99.4315
84.0864
84.6381
99.4316
84.0852
84.637
93.2796
93.147
93.2352
94.1313
93.9975
94.0863
94.0447
93.911
93.9996
93.9581
93.8245
93.8357
93.1284
93.8716
93.7381
93.748
93.8366
93.7857
93.6524
93.6611
93.7496
93.7018
93.5685
93.576
93.6644
93.6185
93.4853
93.4916
93.5799
93.5443
93.4111
93.4163
93.4203
93.1337
93.4319
93.2992
93.3028
93.3052
93.3944
93.3523
93.2195
93.222
93.2233
93.3155
93.2678
93.1351
93.1364
93.2245
)
;

boundaryField
{
    inlet
    {
        type            calculated;
        value           uniform 99.4306;
    }
    outlet2
    {
        type            calculated;
        value           uniform 99.4306;
    }
    outlet1
    {
        type            calculated;
        value           nonuniform List<scalar> 0();
    }
    wall
    {
        type            calculated;
        value           uniform 99.4306;
    }
    symmetryBottom
    {
        type            symmetry;
    }
    symmetryZ0
    {
        type            symmetry;
    }
    symmetryZ05
    {
        type            symmetry;
    }
    procBoundary1to0
    {
        type            processor;
        value           uniform 99.4306;
    }
}


// ************************************************************************* //
