/*--------------------------------*- C++ -*----------------------------------*\
| =========                 |                                                 |
| \\      /  F ield         | OpenFOAM: The Open Source CFD Toolbox           |
|  \\    /   O peration     | Version:  2412                                  |
|   \\  /    A nd           | Website:  www.openfoam.com                      |
|    \\/     M anipulation  |                                                 |
\*---------------------------------------------------------------------------*/
FoamFile
{
    version     2.0;
    format      ascii;
    arch        "LSB;label=32;scalar=64";
    class       volScalarField;
    location    "1e-06";
    object      T;
}
// * * * * * * * * * * * * * * * * * * * * * * * * * * * * * * * * * * * * * //

dimensions      [0 0 0 0 0 0 0];

internalField   nonuniform List<scalar> 
84
(
200.001
199.996
200.002
199.999
199.992
199.999
199.999
199.992
199.998
199.999
199.992
199.998
199.999
199.992
199.998
199.999
199.992
199.998
199.999
199.992
199.998
199.999
199.992
199.998
199.999
199.992
199.998
199.999
199.992
199.998
199.999
199.992
199.998
199.999
199.99
199.996
200.596
200.595
200.595
200.001
200
200
200.001
200
200
200.001
200
200
200.001
200.001
200
200
200
200.117
200.116
200.118
200.118
200.535
200.534
200.542
200.542
200.928
200.927
200.94
200.94
202.432
202.431
202.467
202.503
199.966
199.014
199.012
198.998
198.983
198.979
199.767
199.766
199.762
199.759
199.761
199.903
199.902
199.901
199.901
)
;

boundaryField
{
    inlet
    {
        type            calculated;
        value           uniform 0;
    }
    outlet2
    {
        type            calculated;
        value           uniform 0;
    }
    outlet1
    {
        type            calculated;
        value           nonuniform List<scalar> 0();
    }
    wall
    {
        type            calculated;
        value           uniform 0;
    }
    symmetryBottom
    {
        type            symmetry;
    }
    symmetryZ0
    {
        type            symmetry;
    }
    symmetryZ05
    {
        type            symmetry;
    }
    procBoundary1to0
    {
        type            processor;
        value           uniform 0;
    }
}


// ************************************************************************* //
