/*--------------------------------*- C++ -*----------------------------------*\
| =========                 |                                                 |
| \\      /  F ield         | OpenFOAM: The Open Source CFD Toolbox           |
|  \\    /   O peration     | Version:  2412                                  |
|   \\  /    A nd           | Website:  www.openfoam.com                      |
|    \\/     M anipulation  |                                                 |
\*---------------------------------------------------------------------------*/
FoamFile
{
    version     2.0;
    format      ascii;
    arch        "LSB;label=32;scalar=64";
    class       volVectorField;
    location    "1e-06";
    object      U;
}
// * * * * * * * * * * * * * * * * * * * * * * * * * * * * * * * * * * * * * //

dimensions      [0 0 0 0 0 0 0];

internalField   nonuniform List<vector> 
84
(
(2636.39 -0.000548275 0)
(2633.64 -0.00451889 0)
(2633.86 -0.0042422 -1.43289e-15)
(2636.39 -0.962155 0)
(2633.64 -1.01493 0)
(2633.86 -1.01273 -1.30257e-15)
(2636.39 -0.961452 0)
(2633.64 -1.01421 0)
(2633.86 -1.01201 2.21438e-15)
(2636.39 -0.961452 0)
(2633.64 -1.01421 0)
(2633.86 -1.01201 -2.93087e-15)
(2636.39 -0.961452 0)
(2633.64 -1.01421 0)
(2633.86 -1.01201 -4.94982e-15)
(2636.39 -0.961452 0)
(2633.64 -1.01421 0)
(2633.86 -1.01201 2.80054e-15)
(2636.39 -0.961452 0)
(2633.64 -1.01421 0)
(2633.86 -1.01201 -3.51703e-15)
(2636.39 -0.961452 0)
(2633.64 -1.01421 0)
(2633.86 -1.01201 -4.16828e-15)
(2636.39 -0.961452 0)
(2633.64 -1.01421 0)
(2633.86 -1.01201 1.49795e-15)
(2636.39 -0.961452 0)
(2633.64 -1.01421 0)
(2633.86 -1.01201 -3.51707e-15)
(2636.39 -0.961452 0)
(2633.64 -1.0142 0)
(2633.86 -1.012 -8.92275e-15)
(2636.39 -0.961585 0)
(2633.64 -1.01043 0)
(2633.86 -1.0085 0)
(2635.22 1.03401 1.93358e-17)
(2635.18 1.03402 1.12611e-15)
(2635.19 1.03389 1.06128e-16)
(2635.55 -1.0203 1.70801e-17)
(2635.51 -1.03492 1.11663e-15)
(2635.52 -1.03456 -3.72022e-18)
(2635.54 -1.02049 -2.94542e-17)
(2635.49 -1.0351 -4.87185e-16)
(2635.51 -1.03461 -2.26706e-15)
(2635.52 -1.02067 3.89876e-17)
(2635.48 -1.03528 -1.77824e-17)
(2635.48 -1.04997 2.36753e-19)
(2635.36 0.00956456 1.60987e-15)
(2635.51 -1.02085 -6.50341e-16)
(2635.46 -1.03546 -7.78715e-18)
(2635.47 -1.05016 -1.75387e-17)
(2635.48 -1.0498 1.55263e-15)
(2635.49 -0.968575 -3.71627e-17)
(2635.44 -0.98321 -1.16833e-15)
(2635.45 -0.997198 -1.55797e-17)
(2635.46 -0.996861 1.05174e-15)
(2635.46 -0.7784 3.96984e-17)
(2635.41 -0.792954 -1.23277e-18)
(2635.42 -0.804212 -8.38311e-18)
(2635.43 -0.80395 -8.96912e-18)
(2635.44 -0.654218 6.34313e-17)
(2635.39 -0.66873 -1.06552e-15)
(2635.39 -0.678221 1.1628e-15)
(2635.41 -0.677912 7.64412e-18)
(2635.42 -0.593264 -1.93357e-17)
(2635.38 -0.607722 -1.69939e-15)
(2635.38 -0.616317 -1.75656e-15)
(2635.38 -0.625213 1.78567e-15)
(2635.36 0.0104705 1.20332e-14)
(2635.42 -0.596582 5.17344e-17)
(2635.38 -0.610999 -1.7567e-15)
(2635.38 -0.619594 1.06745e-15)
(2635.38 -0.628492 2.84419e-15)
(2635.39 -0.628819 1.7873e-15)
(2635.41 -0.670918 1.27725e-16)
(2635.37 -0.685359 -8.70934e-19)
(2635.37 -0.695038 2.21086e-18)
(2635.37 -0.705137 2.71899e-19)
(2635.38 -0.711321 -1.57996e-15)
(2635.4 -0.80909 1.26971e-18)
(2635.36 -0.82348 1.71247e-15)
(2635.36 -0.835136 -2.3872e-17)
(2635.38 -0.834841 -2.81561e-15)
)
;

boundaryField
{
    inlet
    {
        type            calculated;
        value           uniform (0 0 0);
    }
    outlet2
    {
        type            calculated;
        value           uniform (0 0 0);
    }
    outlet1
    {
        type            calculated;
        value           nonuniform List<vector> 0();
    }
    wall
    {
        type            calculated;
        value           uniform (0 0 0);
    }
    symmetryBottom
    {
        type            symmetry;
    }
    symmetryZ0
    {
        type            symmetry;
    }
    symmetryZ05
    {
        type            symmetry;
    }
    procBoundary1to0
    {
        type            processor;
        value           uniform (0 0 0);
    }
}


// ************************************************************************* //
