/*--------------------------------*- C++ -*----------------------------------*\
| =========                 |                                                 |
| \\      /  F ield         | OpenFOAM: The Open Source CFD Toolbox           |
|  \\    /   O peration     | Version:  2412                                  |
|   \\  /    A nd           | Website:  www.openfoam.com                      |
|    \\/     M anipulation  |                                                 |
\*---------------------------------------------------------------------------*/
FoamFile
{
    version     2.0;
    format      ascii;
    arch        "LSB;label=32;scalar=64";
    class       volScalarField;
    location    "9.3e-06";
    object      E;
}
// * * * * * * * * * * * * * * * * * * * * * * * * * * * * * * * * * * * * * //

dimensions      [0 0 0 0 0 0 0];

internalField   nonuniform List<scalar> 
84
(
102.106
51.5893
55.3618
55.191
55.2158
55.2365
55.2038
55.8884
109.36
55.3462
59.4403
59.3205
59.4115
59.4999
59.5401
60.2634
107.877
55.451
58.9289
58.8576
58.939
59.0207
59.0537
59.7725
106.667
54.5651
58.5116
58.3852
58.4651
58.488
59.2019
106.767
53.9951
57.9801
57.8426
57.9137
57.9268
58.6357
105.838
53.5063
57.4496
57.3052
57.3674
57.3709
58.0749
104.902
53.0248
56.9237
56.7728
56.8261
56.8203
57.5195
103.682
52.7834
56.38
56.2465
56.2899
56.2749
56.9692
102.643
52.1255
55.9109
55.7517
55.7349
56.4242
102.19
51.6128
55.393
55.2255
55.1998
55.8844
101.215
51.1451
54.8779
54.7043
54.6698
55.3496
99.3869
50.8053
54.3563
54.1839
54.1952
54.145
54.8203
)
;

boundaryField
{
    inlet
    {
        type            calculated;
        value           nonuniform List<scalar> 0();
    }
    outlet2
    {
        type            calculated;
        value           uniform 0;
    }
    outlet1
    {
        type            calculated;
        value           uniform 0;
    }
    wall
    {
        type            calculated;
        value           uniform 0;
    }
    symmetryBottom
    {
        type            symmetry;
    }
    symmetryZ0
    {
        type            symmetry;
    }
    symmetryZ05
    {
        type            symmetry;
    }
    procBoundary0to1
    {
        type            processor;
        value           uniform 0;
    }
}


// ************************************************************************* //
