/*--------------------------------*- C++ -*----------------------------------*\
| =========                 |                                                 |
| \\      /  F ield         | OpenFOAM: The Open Source CFD Toolbox           |
|  \\    /   O peration     | Version:  2412                                  |
|   \\  /    A nd           | Website:  www.openfoam.com                      |
|    \\/     M anipulation  |                                                 |
\*---------------------------------------------------------------------------*/
FoamFile
{
    version     2.0;
    format      ascii;
    arch        "LSB;label=32;scalar=64";
    class       volScalarField;
    location    "9.3e-06";
    object      rho_dof0;
}
// * * * * * * * * * * * * * * * * * * * * * * * * * * * * * * * * * * * * * //

dimensions      [0 0 0 0 0 0 0];

internalField   nonuniform List<scalar> 
84
(
2.88558e-05
1.47133e-05
1.57577e-05
1.57111e-05
1.5718e-05
1.57239e-05
1.57149e-05
1.59069e-05
3.08819e-05
1.57707e-05
1.69038e-05
1.68716e-05
1.68971e-05
1.69219e-05
1.69334e-05
1.71361e-05
3.04693e-05
1.57975e-05
1.67602e-05
1.67413e-05
1.67641e-05
1.67871e-05
1.67965e-05
1.6998e-05
3.01326e-05
1.555e-05
1.66426e-05
1.66085e-05
1.66309e-05
1.66375e-05
1.68376e-05
3.01577e-05
1.53901e-05
1.64932e-05
1.6456e-05
1.64759e-05
1.64798e-05
1.66785e-05
2.98984e-05
1.52525e-05
1.63441e-05
1.63049e-05
1.63223e-05
1.63235e-05
1.65209e-05
2.9637e-05
1.51168e-05
1.61962e-05
1.61552e-05
1.61701e-05
1.61687e-05
1.63647e-05
2.92971e-05
1.50476e-05
1.60435e-05
1.60072e-05
1.60193e-05
1.60153e-05
1.621e-05
2.90073e-05
1.48632e-05
1.59114e-05
1.5868e-05
1.58634e-05
1.60567e-05
2.88796e-05
1.4719e-05
1.57657e-05
1.572e-05
1.57129e-05
1.59049e-05
2.86074e-05
1.45872e-05
1.56209e-05
1.55734e-05
1.55638e-05
1.57545e-05
2.80963e-05
1.44908e-05
1.54742e-05
1.5427e-05
1.54301e-05
1.54162e-05
1.56056e-05
)
;

boundaryField
{
    inlet
    {
        type            calculated;
        value           nonuniform List<scalar> 0();
    }
    outlet2
    {
        type            calculated;
        value           uniform 2.81085e-05;
    }
    outlet1
    {
        type            calculated;
        value           uniform 2.81085e-05;
    }
    wall
    {
        type            calculated;
        value           uniform 2.81085e-05;
    }
    symmetryBottom
    {
        type            symmetry;
    }
    symmetryZ0
    {
        type            symmetry;
    }
    symmetryZ05
    {
        type            symmetry;
    }
    procBoundary0to1
    {
        type            processor;
        value           uniform 2.81085e-05;
    }
}


// ************************************************************************* //
