/*--------------------------------*- C++ -*----------------------------------*\
| =========                 |                                                 |
| \\      /  F ield         | OpenFOAM: The Open Source CFD Toolbox           |
|  \\    /   O peration     | Version:  2412                                  |
|   \\  /    A nd           | Website:  www.openfoam.com                      |
|    \\/     M anipulation  |                                                 |
\*---------------------------------------------------------------------------*/
FoamFile
{
    version     2.0;
    format      ascii;
    arch        "LSB;label=32;scalar=64";
    class       volVectorField;
    location    "9.3e-06";
    object      rhoU_dof0;
}
// * * * * * * * * * * * * * * * * * * * * * * * * * * * * * * * * * * * * * //

dimensions      [0 0 0 0 0 0 0];

internalField   nonuniform List<vector> 
84
(
(0.0760752 -5.12834e-06 3.28674e-19)
(0.0386101 -3.07807e-06 -1.75607e-19)
(0.0413926 -3.29841e-06 -4.97004e-19)
(0.0412674 -3.39216e-06 2.48836e-19)
(0.0412856 -3.49536e-06 -2.56303e-20)
(0.0413009 -3.60291e-06 -1.73948e-20)
(0.0412767 -3.72453e-06 4.4498e-19)
(0.0417849 -3.73866e-06 4.08833e-20)
(0.0814613 -0.00029691 3.22638e-19)
(0.04141 -0.000156325 -1.72148e-19)
(0.0444298 -0.000169197 -6.18271e-19)
(0.0443427 -0.000171431 1.39869e-19)
(0.0444101 -0.000174264 -1.08492e-18)
(0.0444758 -0.000177166 1.3715e-19)
(0.0445059 -0.000180302 8.686e-19)
(0.0450428 -0.000181846 1.56368e-19)
(0.0803647 -0.000275021 -1.44353e-18)
(0.0414844 -0.000177017 1.65122e-19)
(0.0440499 -0.000169273 3.00182e-19)
(0.0439984 -0.000173442 -2.28534e-20)
(0.0440588 -0.000176235 -6.05459e-20)
(0.0441195 -0.000179204 4.70925e-19)
(0.0441442 -0.000182412 -3.20931e-19)
(0.0446777 -0.000183968 -3.91231e-19)
(0.0794699 -0.000264596 -1.42765e-18)
(0.040828 -0.000161698 5.05119e-19)
(0.0437394 -0.000172238 3.50673e-20)
(0.0436473 -0.000174679 -1.01591e-18)
(0.0437066 -0.000177609 9.21108e-19)
(0.0437238 -0.000180761 1.60749e-19)
(0.0442537 -0.000182309 -3.0606e-19)
(0.07954 -0.000299361 -7.59356e-19)
(0.0404048 -0.000157578 -1.45069e-19)
(0.0433443 -0.000170838 1.19909e-20)
(0.043244 -0.000173096 1.94392e-20)
(0.0432967 -0.000175981 -3.22858e-19)
(0.0433067 -0.000179075 1.97322e-19)
(0.0438329 -0.000180614 5.84785e-19)
(0.078852 -0.000297467 -4.96204e-19)
(0.0400412 -0.000156146 5.37363e-19)
(0.04295 -0.00016932 -9.10637e-20)
(0.0428446 -0.000171532 6.70816e-19)
(0.0428906 -0.000174367 -6.16786e-19)
(0.0428935 -0.000177404 5.46953e-19)
(0.0434161 -0.000178934 -9.4091e-19)
(0.0781587 -0.000294766 -4.57136e-20)
(0.039683 -0.000154896 5.01259e-19)
(0.0425591 -0.000167801 -3.82389e-20)
(0.0424488 -0.000169983 -3.47801e-20)
(0.0424883 -0.000172767 5.25609e-19)
(0.0424842 -0.000175749 3.08307e-20)
(0.0430032 -0.000177269 4.88089e-19)
(0.077256 -0.000270458 6.97422e-21)
(0.0395018 -0.000171795 8.07268e-21)
(0.0421552 -0.000164584 -1.78555e-21)
(0.0420575 -0.000168541 -6.66231e-21)
(0.0420897 -0.000171178 1.90923e-21)
(0.0420788 -0.000174109 3.17765e-20)
(0.0425942 -0.00017562 -3.94856e-19)
(0.0764865 -0.000257698 1.71475e-18)
(0.0390135 -0.000157089 -3.91495e-20)
(0.0418062 -0.000167308 -9.91577e-19)
(0.0416897 -0.000169597 -3.6665e-19)
(0.0416773 -0.000172484 5.61262e-19)
(0.0421891 -0.000173986 -3.39298e-20)
(0.0761495 -0.00029144 -5.90071e-19)
(0.0386324 -0.00015307 8.17141e-20)
(0.0414212 -0.000165924 -5.54206e-19)
(0.0412985 -0.000168035 4.90184e-19)
(0.0412795 -0.000170874 9.04917e-19)
(0.0417878 -0.000172367 -8.4937e-20)
(0.0754271 -0.000271568 -7.90655e-19)
(0.0382842 -0.000153357 5.68314e-20)
(0.0410382 -0.000164335 -7.05178e-20)
(0.0409109 -0.000166497 8.47876e-19)
(0.0408855 -0.000169278 9.66164e-19)
(0.0413902 -0.000170763 1.76963e-20)
(0.0740727 -1.63864e-05 -4.07846e-20)
(0.0380304 -0.000183751 3.32852e-21)
(0.0406505 -0.000157814 -4.59331e-20)
(0.040524 -0.000162489 6.0355e-19)
(0.0405323 -0.000164905 -4.85534e-20)
(0.0404953 -0.000167625 4.2057e-20)
(0.0409967 -0.000169107 -4.91496e-19)
)
;

boundaryField
{
    inlet
    {
        type            calculated;
        value           nonuniform List<vector> 0();
    }
    outlet2
    {
        type            calculated;
        value           uniform (0.0741049 0 0);
    }
    outlet1
    {
        type            calculated;
        value           uniform (0.0741049 0 0);
    }
    wall
    {
        type            calculated;
        value           uniform (0.0741049 0 0);
    }
    symmetryBottom
    {
        type            symmetry;
    }
    symmetryZ0
    {
        type            symmetry;
    }
    symmetryZ05
    {
        type            symmetry;
    }
    procBoundary0to1
    {
        type            processor;
        value           uniform (0.0741049 0 0);
    }
}


// ************************************************************************* //
