/*--------------------------------*- C++ -*----------------------------------*\
| =========                 |                                                 |
| \\      /  F ield         | OpenFOAM: The Open Source CFD Toolbox           |
|  \\    /   O peration     | Version:  2412                                  |
|   \\  /    A nd           | Website:  www.openfoam.com                      |
|    \\/     M anipulation  |                                                 |
\*---------------------------------------------------------------------------*/
FoamFile
{
    version     2.0;
    format      ascii;
    arch        "LSB;label=32;scalar=64";
    class       volScalarField;
    location    "9.3e-06";
    object      T;
}
// * * * * * * * * * * * * * * * * * * * * * * * * * * * * * * * * * * * * * //

dimensions      [0 0 0 0 0 0 0];

internalField   nonuniform List<scalar> 
84
(
203.498
203.477
203.638
203.683
203.74
203.799
203.864
203.854
199.999
199.901
200.01
199.999
200
200
199.999
200.002
199.971
199.898
200.004
199.995
199.995
199.995
199.994
199.997
200.005
199.897
200.006
199.995
199.996
199.995
199.997
199.993
199.894
200.006
199.995
199.996
199.995
199.997
199.997
199.893
200.006
199.995
199.996
199.994
199.997
199.996
199.896
200.005
199.995
199.996
199.994
199.997
199.971
199.888
200.006
199.995
199.996
199.994
199.997
200.008
199.893
200.005
199.995
199.994
199.997
199.991
199.893
200.005
199.995
199.994
199.997
200.002
199.891
200.005
199.995
199.994
199.997
199.973
199.865
200.007
199.996
199.996
199.995
199.998
)
;

boundaryField
{
    inlet
    {
        type            calculated;
        value           nonuniform List<scalar> 0();
    }
    outlet2
    {
        type            calculated;
        value           uniform 0;
    }
    outlet1
    {
        type            calculated;
        value           uniform 0;
    }
    wall
    {
        type            calculated;
        value           uniform 0;
    }
    symmetryBottom
    {
        type            symmetry;
    }
    symmetryZ0
    {
        type            symmetry;
    }
    symmetryZ05
    {
        type            symmetry;
    }
    procBoundary0to1
    {
        type            processor;
        value           uniform 0;
    }
}


// ************************************************************************* //
