/*--------------------------------*- C++ -*----------------------------------*\
| =========                 |                                                 |
| \\      /  F ield         | OpenFOAM: The Open Source CFD Toolbox           |
|  \\    /   O peration     | Version:  2412                                  |
|   \\  /    A nd           | Website:  www.openfoam.com                      |
|    \\/     M anipulation  |                                                 |
\*---------------------------------------------------------------------------*/
FoamFile
{
    version     2.0;
    format      ascii;
    arch        "LSB;label=32;scalar=64";
    class       volScalarField;
    location    "1e-06";
    object      E_dof0;
}
// * * * * * * * * * * * * * * * * * * * * * * * * * * * * * * * * * * * * * //

dimensions      [0 0 0 0 0 0 0];

internalField   nonuniform List<scalar> 
84
(
99.4405
93.0539
93.15
93.1494
93.1497
93.1499
93.1502
93.2482
100.369
93.9412
94.0512
94.0642
94.0785
94.0933
94.1085
94.2071
100.261
93.861
93.9594
93.9711
93.984
93.9972
94.0109
94.1095
100.181
93.7715
93.879
93.8895
93.9013
93.9135
94.0119
100.098
93.6798
93.786
93.7951
93.8054
93.8161
93.9145
100.003
93.589
93.6937
93.7014
93.7103
93.7194
93.8178
99.91
93.5002
93.6035
93.6098
93.6172
93.6248
93.7231
99.8105
93.4178
93.5139
93.5189
93.5249
93.5311
93.6293
99.7346
93.3379
93.4387
93.4425
93.4474
93.5455
99.6158
93.2177
93.3165
93.3185
93.3214
93.4195
99.5232
93.1321
93.2295
93.2301
93.2316
93.3296
99.3348
93.0453
93.1373
93.1365
93.1365
93.1366
93.2345
)
;

boundaryField
{
    inlet
    {
        type            calculated;
        value           nonuniform List<scalar> 0();
    }
    outlet2
    {
        type            calculated;
        value           uniform 99.4306;
    }
    outlet1
    {
        type            calculated;
        value           uniform 99.4306;
    }
    wall
    {
        type            calculated;
        value           uniform 99.4306;
    }
    symmetryBottom
    {
        type            symmetry;
    }
    symmetryZ0
    {
        type            symmetry;
    }
    symmetryZ05
    {
        type            symmetry;
    }
    procBoundary0to1
    {
        type            processor;
        value           uniform 99.4306;
    }
}


// ************************************************************************* //
