/*--------------------------------*- C++ -*----------------------------------*\
| =========                 |                                                 |
| \\      /  F ield         | OpenFOAM: The Open Source CFD Toolbox           |
|  \\    /   O peration     | Version:  2412                                  |
|   \\  /    A nd           | Website:  www.openfoam.com                      |
|    \\/     M anipulation  |                                                 |
\*---------------------------------------------------------------------------*/
FoamFile
{
    version     2.0;
    format      ascii;
    arch        "LSB;label=32;scalar=64";
    class       volScalarField;
    location    "1e-06";
    object      T;
}
// * * * * * * * * * * * * * * * * * * * * * * * * * * * * * * * * * * * * * //

dimensions      [0 0 0 0 0 0 0];

internalField   nonuniform List<scalar> 
84
(
200.608
200.62
200.63
200.64
200.65
200.66
200.67
200.67
199.999
199.999
200
200
200
200
200
200
199.999
199.999
200
200
200
200
200
200
199.999
199.999
200
200
200
200
200
200
199.999
200
200
200
200
200
200.118
200.122
200.125
200.126
200.128
200.13
200.13
200.55
200.565
200.575
200.583
200.592
200.602
200.601
200.95
200.983
200.997
201.012
201.028
201.044
201.044
202.506
202.618
202.658
202.699
202.742
202.741
198.964
198.936
198.921
198.904
198.886
198.887
199.75
199.747
199.744
199.74
199.736
199.736
199.995
199.895
199.895
199.893
199.891
199.89
199.89
)
;

boundaryField
{
    inlet
    {
        type            calculated;
        value           nonuniform List<scalar> 0();
    }
    outlet2
    {
        type            calculated;
        value           uniform 0;
    }
    outlet1
    {
        type            calculated;
        value           uniform 0;
    }
    wall
    {
        type            calculated;
        value           uniform 0;
    }
    symmetryBottom
    {
        type            symmetry;
    }
    symmetryZ0
    {
        type            symmetry;
    }
    symmetryZ05
    {
        type            symmetry;
    }
    procBoundary0to1
    {
        type            processor;
        value           uniform 0;
    }
}


// ************************************************************************* //
