/*--------------------------------*- C++ -*----------------------------------*\
| =========                 |                                                 |
| \\      /  F ield         | OpenFOAM: The Open Source CFD Toolbox           |
|  \\    /   O peration     | Version:  2412                                  |
|   \\  /    A nd           | Website:  www.openfoam.com                      |
|    \\/     M anipulation  |                                                 |
\*---------------------------------------------------------------------------*/
FoamFile
{
    version     2.0;
    format      ascii;
    arch        "LSB;label=32;scalar=64";
    class       volVectorField;
    location    "1e-06";
    object      U;
}
// * * * * * * * * * * * * * * * * * * * * * * * * * * * * * * * * * * * * * //

dimensions      [0 0 0 0 0 0 0];

internalField   nonuniform List<vector> 
84
(
(2636.18 1.05989 1.16801e-15)
(2635.14 1.07947 -1.24394e-15)
(2635.17 1.09529 -2.95049e-15)
(2635.16 1.11173 1.33937e-15)
(2635.16 1.12866 5.81494e-18)
(2635.16 1.14612 1.55769e-16)
(2635.15 1.16412 2.63729e-15)
(2635.17 1.16379 5.35785e-16)
(2636.52 -1.05426 1.04015e-15)
(2635.48 -1.08061 -1.07944e-15)
(2635.52 -1.09628 -3.51164e-15)
(2635.52 -1.11278 8.96275e-17)
(2635.52 -1.12978 -5.95333e-15)
(2635.52 -1.14731 6.69056e-16)
(2635.53 -1.16539 5.00126e-15)
(2635.54 -1.16495 1.28965e-15)
(2636.5 -1.0367 -4.98521e-15)
(2635.47 -1.09399 8.3194e-16)
(2635.5 -1.09628 1.79357e-15)
(2635.5 -1.11299 -4.53972e-17)
(2635.51 -1.13 -2.75514e-17)
(2635.51 -1.14753 2.41273e-15)
(2635.51 -1.16562 -1.93002e-15)
(2635.53 -1.16517 -2.53841e-15)
(2636.49 -1.05543 -5.07497e-15)
(2635.45 -1.09715 2.50221e-15)
(2635.49 -1.11319 -5.47655e-17)
(2635.49 -1.13021 -5.59248e-15)
(2635.49 -1.14775 5.04038e-15)
(2635.49 -1.16585 1.26128e-15)
(2635.51 -1.1654 -1.90126e-15)
(2636.48 -1.07031 -2.79162e-15)
(2635.44 -1.09721 -1.15696e-15)
(2635.47 -1.11341 1.78209e-17)
(2635.47 -1.13043 4.47107e-18)
(2635.48 -1.14798 -1.71182e-15)
(2635.48 -1.16608 1.39693e-15)
(2635.49 -1.16564 3.7697e-15)
(2636.46 -1.01693 -1.70146e-15)
(2635.42 -1.04199 2.97454e-15)
(2635.45 -1.05742 -4.4222e-17)
(2635.45 -1.07364 3.66905e-15)
(2635.45 -1.09035 -3.18238e-15)
(2635.46 -1.1076 2.56996e-15)
(2635.47 -1.10718 -5.83348e-15)
(2636.43 -0.820786 -1.27021e-19)
(2635.39 -0.840327 2.98934e-15)
(2635.42 -0.852786 -4.3495e-17)
(2635.42 -0.865864 -9.14908e-18)
(2635.42 -0.879346 3.14348e-15)
(2635.42 -0.893255 5.47651e-16)
(2635.44 -0.892931 3.2347e-15)
(2636.41 -0.678204 1.09084e-18)
(2635.37 -0.719203 1.68652e-18)
(2635.4 -0.719099 -9.43201e-18)
(2635.4 -0.730312 -6.93457e-18)
(2635.4 -0.741703 9.57585e-19)
(2635.4 -0.753457 -6.12772e-19)
(2635.41 -0.753196 -2.40142e-15)
(2636.39 -0.631191 5.88802e-15)
(2635.35 -0.653737 -9.19989e-17)
(2635.38 -0.663544 -6.07672e-15)
(2635.38 -0.673874 -2.49671e-15)
(2635.38 -0.684529 3.12081e-15)
(2635.4 -0.684303 -1.70857e-18)
(2636.39 -0.643274 -2.16344e-15)
(2635.35 -0.656906 3.60286e-17)
(2635.38 -0.66679 -3.04542e-15)
(2635.38 -0.677108 3.02683e-15)
(2635.38 -0.687748 5.67843e-15)
(2635.4 -0.687529 2.92901e-19)
(2636.38 -0.714554 -2.88808e-15)
(2635.34 -0.737114 4.53848e-17)
(2635.37 -0.748113 1.12274e-18)
(2635.37 -0.759718 5.58012e-15)
(2635.37 -0.771687 6.13786e-15)
(2635.39 -0.771441 7.25024e-16)
(2636.36 -0.0185908 -3.9469e-17)
(2635.33 -0.890642 3.69947e-19)
(2635.36 -0.88518 -2.13824e-21)
(2635.36 -0.898911 3.68743e-15)
(2635.36 -0.912852 -5.58295e-17)
(2635.36 -0.927232 4.99027e-19)
(2635.38 -0.926959 -3.07214e-15)
)
;

boundaryField
{
    inlet
    {
        type            calculated;
        value           nonuniform List<vector> 0();
    }
    outlet2
    {
        type            calculated;
        value           uniform (0 0 0);
    }
    outlet1
    {
        type            calculated;
        value           uniform (0 0 0);
    }
    wall
    {
        type            calculated;
        value           uniform (0 0 0);
    }
    symmetryBottom
    {
        type            symmetry;
    }
    symmetryZ0
    {
        type            symmetry;
    }
    symmetryZ05
    {
        type            symmetry;
    }
    procBoundary0to1
    {
        type            processor;
        value           uniform (0 0 0);
    }
}


// ************************************************************************* //
