/*--------------------------------*- C++ -*----------------------------------*\
| =========                 |                                                 |
| \\      /  F ield         | OpenFOAM: The Open Source CFD Toolbox           |
|  \\    /   O peration     | Version:  2412                                  |
|   \\  /    A nd           | Website:  www.openfoam.com                      |
|    \\/     M anipulation  |                                                 |
\*---------------------------------------------------------------------------*/
FoamFile
{
    version     2.0;
    format      ascii;
    arch        "LSB;label=32;scalar=64";
    class       volScalarField;
    location    "4.5e-06";
    object      E_dof0;
}
// * * * * * * * * * * * * * * * * * * * * * * * * * * * * * * * * * * * * * //

dimensions      [0 0 0 0 0 0 0];

internalField   nonuniform List<scalar> 
84
(
98.1008
72.3948
74.2817
74.1936
74.1993
74.2019
74.2046
74.5768
102.24
75.5212
77.5312
77.489
77.5459
77.601
77.658
78.043
101.536
75.4479
77.1687
77.146
77.1961
77.2456
77.2968
77.6805
101.21
74.9174
76.8953
76.8446
76.8919
76.9372
77.3195
101.006
74.5772
76.5536
76.4975
76.5392
76.5787
76.9598
100.574
74.2502
76.2134
76.1523
76.1884
76.2222
76.602
100.151
73.9313
75.8808
75.8149
75.8455
75.8737
76.2522
99.5927
73.7586
75.5424
75.4852
75.5099
75.5327
75.91
99.2509
73.3517
75.272
75.1976
75.2185
75.5946
98.8406
72.9397
74.8505
74.77
74.7844
75.1587
98.3636
72.636
74.5274
74.4423
74.4513
74.8245
97.5519
72.3946
74.1938
74.1103
74.1137
74.1143
74.4863
)
;

boundaryField
{
    inlet
    {
        type            calculated;
        value           nonuniform List<scalar> 0();
    }
    outlet2
    {
        type            calculated;
        value           uniform 99.4306;
    }
    outlet1
    {
        type            calculated;
        value           uniform 99.4306;
    }
    wall
    {
        type            calculated;
        value           uniform 99.4306;
    }
    symmetryBottom
    {
        type            symmetry;
    }
    symmetryZ0
    {
        type            symmetry;
    }
    symmetryZ05
    {
        type            symmetry;
    }
    procBoundary0to1
    {
        type            processor;
        value           uniform 99.4306;
    }
}


// ************************************************************************* //
