/*--------------------------------*- C++ -*----------------------------------*\
| =========                 |                                                 |
| \\      /  F ield         | OpenFOAM: The Open Source CFD Toolbox           |
|  \\    /   O peration     | Version:  2412                                  |
|   \\  /    A nd           | Website:  www.openfoam.com                      |
|    \\/     M anipulation  |                                                 |
\*---------------------------------------------------------------------------*/
FoamFile
{
    version     2.0;
    format      ascii;
    arch        "LSB;label=32;scalar=64";
    class       volVectorField;
    location    "4.5e-06";
    object      rhoU_dof0;
}
// * * * * * * * * * * * * * * * * * * * * * * * * * * * * * * * * * * * * * //

dimensions      [0 0 0 0 0 0 0];

internalField   nonuniform List<vector> 
84
(
(0.0731315 0.000129319 1.29123e-19)
(0.0540667 9.75733e-05 -1.29902e-19)
(0.0554582 0.000101432 -2.55446e-19)
(0.0553937 0.000102804 1.42083e-19)
(0.055398 0.00010434 -1.33429e-20)
(0.0553999 0.000105918 1.71313e-20)
(0.0554021 0.000107545 2.42177e-19)
(0.0556782 0.000107951 4.09237e-20)
(0.0761936 -0.000136812 1.33216e-19)
(0.0563828 -0.000104483 -1.2945e-19)
(0.057865 -0.00010843 -3.15447e-19)
(0.0578345 -0.000110032 2.89987e-20)
(0.0578767 -0.000111792 -5.91494e-19)
(0.0579176 -0.000113606 1.14925e-19)
(0.0579599 -0.00011548 4.73193e-19)
(0.0582455 -0.000115889 9.4931e-20)
(0.0756732 -0.000126023 -5.59425e-19)
(0.0563271 -0.00011297 9.95482e-20)
(0.0575963 -0.000107182 1.79454e-19)
(0.05758 -0.000109611 -1.53042e-20)
(0.0576171 -0.000111314 -6.57805e-21)
(0.0576539 -0.000113115 2.38461e-19)
(0.0576918 -0.000114973 -2.09308e-19)
(0.0579765 -0.000115381 -2.31885e-19)
(0.075431 -0.000129835 -5.43555e-19)
(0.0559345 -0.000105498 2.55298e-19)
(0.0573931 -0.000109209 -2.12947e-20)
(0.0573564 -0.000110838 -5.28828e-19)
(0.0573914 -0.000112626 5.1038e-19)
(0.057425 -0.000114468 9.63178e-20)
(0.0577086 -0.000114874 -2.07184e-19)
(0.0752792 -0.00013738 -3.29941e-19)
(0.0556821 -0.0001047 -9.41651e-20)
(0.0571395 -0.000108789 7.73154e-21)
(0.0570987 -0.000110391 2.36766e-21)
(0.0571296 -0.000112164 -1.89998e-19)
(0.0571589 -0.000113991 1.45406e-19)
(0.0574416 -0.000114397 3.31577e-19)
(0.074957 -0.000131529 -2.00335e-19)
(0.0554377 -0.000100098 2.8058e-19)
(0.0568853 -0.000104049 -2.23052e-20)
(0.0568408 -0.000105597 3.3921e-19)
(0.0568675 -0.000107313 -3.05825e-19)
(0.0568925 -0.00010908 2.62942e-19)
(0.0571742 -0.00010947 -5.68461e-19)
(0.0746325 -0.000105517 -5.90471e-23)
(0.055193 -8.03445e-05 2.70915e-19)
(0.0566301 -8.34555e-05 -2.18139e-20)
(0.0565819 -8.46955e-05 7.21159e-23)
(0.0566044 -8.60635e-05 2.81782e-19)
(0.0566251 -8.74733e-05 3.85006e-20)
(0.0569059 -8.77876e-05 2.8175e-19)
(0.0742077 -8.06938e-05 3.65251e-21)
(0.0550558 -7.49884e-05 2.58652e-21)
(0.0563703 -6.99868e-05 -1.21461e-21)
(0.0563283 -7.17058e-05 -2.84732e-21)
(0.0563463 -7.28363e-05 -5.9334e-22)
(0.0563629 -7.40372e-05 1.19733e-21)
(0.0566427 -7.43034e-05 -2.43934e-19)
(0.0739091 -7.6267e-05 6.99911e-19)
(0.0547164 -6.16509e-05 -5.07148e-20)
(0.0561302 -6.38773e-05 -5.85014e-19)
(0.0560749 -6.48263e-05 -2.07359e-19)
(0.0560894 -6.58718e-05 3.16111e-19)
(0.0563681 -6.61117e-05 -2.23988e-20)
(0.0737077 -7.94998e-05 -2.50506e-19)
(0.0544908 -6.02664e-05 1.81536e-20)
(0.055901 -6.26444e-05 -2.71306e-19)
(0.0558424 -6.3536e-05 2.94722e-19)
(0.0558535 -6.45281e-05 4.98442e-19)
(0.0561313 -6.47663e-05 -4.27118e-20)
(0.0733297 -8.49071e-05 -3.50686e-19)
(0.0542474 -6.84145e-05 2.45486e-20)
(0.0556424 -7.0641e-05 -6.50149e-22)
(0.0555802 -7.16799e-05 5.16611e-19)
(0.055587 -7.28085e-05 5.38405e-19)
(0.0558638 -7.30763e-05 2.47626e-20)
(0.0727196 -9.66282e-06 -2.05181e-20)
(0.0540645 -8.93385e-05 1.00339e-21)
(0.0553909 -8.25631e-05 -3.49132e-23)
(0.0553297 -8.43198e-05 3.19776e-19)
(0.0553323 -8.55949e-05 -2.56914e-20)
(0.0553327 -8.69328e-05 1.2688e-21)
(0.0556088 -8.72559e-05 -2.7441e-19)
)
;

boundaryField
{
    inlet
    {
        type            calculated;
        value           nonuniform List<vector> 0();
    }
    outlet2
    {
        type            calculated;
        value           uniform (0.0741049 0 0);
    }
    outlet1
    {
        type            calculated;
        value           uniform (0.0741049 0 0);
    }
    wall
    {
        type            calculated;
        value           uniform (0.0741049 0 0);
    }
    symmetryBottom
    {
        type            symmetry;
    }
    symmetryZ0
    {
        type            symmetry;
    }
    symmetryZ05
    {
        type            symmetry;
    }
    procBoundary0to1
    {
        type            processor;
        value           uniform (0.0741049 0 0);
    }
}


// ************************************************************************* //
