/*--------------------------------*- C++ -*----------------------------------*\
| =========                 |                                                 |
| \\      /  F ield         | OpenFOAM: The Open Source CFD Toolbox           |
|  \\    /   O peration     | Version:  2412                                  |
|   \\  /    A nd           | Website:  www.openfoam.com                      |
|    \\/     M anipulation  |                                                 |
\*---------------------------------------------------------------------------*/
FoamFile
{
    version     2.0;
    format      ascii;
    arch        "LSB;label=32;scalar=64";
    class       volScalarField;
    location    "4.5e-06";
    object      T;
}
// * * * * * * * * * * * * * * * * * * * * * * * * * * * * * * * * * * * * * //

dimensions      [0 0 0 0 0 0 0];

internalField   nonuniform List<scalar> 
84
(
202.732
202.78
202.847
202.887
202.932
202.977
203.025
203.021
199.987
199.975
200.001
199.998
199.998
199.998
199.998
199.998
199.974
199.976
200.001
199.998
199.998
199.998
199.998
199.998
199.989
199.974
200.001
199.998
199.998
199.998
199.998
199.99
199.977
200.004
200.001
200.001
200.001
200.002
200.426
200.438
200.468
200.47
200.475
200.48
200.48
202.443
202.519
202.576
202.612
202.653
202.694
202.69
204.249
204.525
204.556
204.629
204.702
204.777
204.771
211.478
212.769
212.908
213.129
213.356
213.334
195.164
195.039
194.995
194.91
194.827
194.834
198.779
198.805
198.808
198.786
198.766
198.768
199.902
199.469
199.51
199.498
199.49
199.482
199.483
)
;

boundaryField
{
    inlet
    {
        type            calculated;
        value           nonuniform List<scalar> 0();
    }
    outlet2
    {
        type            calculated;
        value           uniform 0;
    }
    outlet1
    {
        type            calculated;
        value           uniform 0;
    }
    wall
    {
        type            calculated;
        value           uniform 0;
    }
    symmetryBottom
    {
        type            symmetry;
    }
    symmetryZ0
    {
        type            symmetry;
    }
    symmetryZ05
    {
        type            symmetry;
    }
    procBoundary0to1
    {
        type            processor;
        value           uniform 0;
    }
}


// ************************************************************************* //
