/*--------------------------------*- C++ -*----------------------------------*\
| =========                 |                                                 |
| \\      /  F ield         | OpenFOAM: The Open Source CFD Toolbox           |
|  \\    /   O peration     | Version:  2412                                  |
|   \\  /    A nd           | Website:  www.openfoam.com                      |
|    \\/     M anipulation  |                                                 |
\*---------------------------------------------------------------------------*/
FoamFile
{
    version     2.0;
    format      ascii;
    arch        "LSB;label=32;scalar=64";
    class       volScalarField;
    location    "6.9e-06";
    object      E_dof0;
}
// * * * * * * * * * * * * * * * * * * * * * * * * * * * * * * * * * * * * * //

dimensions      [0 0 0 0 0 0 0];

internalField   nonuniform List<scalar> 
84
(
96.2159
59.6791
63.8204
63.5154
63.5374
63.5416
63.5468
64.0556
102.455
63.6516
68.1127
67.8548
67.9453
68.0192
68.0965
68.6325
101.201
63.8163
67.5738
67.4003
67.476
67.5426
67.6117
68.1449
100.738
62.8901
67.2588
66.9926
67.0699
67.1303
67.6608
100.571
62.4289
66.8029
66.5292
66.5989
66.6514
67.1791
99.9102
62.0075
66.3468
66.0677
66.1297
66.1744
66.6992
99.2619
61.5989
65.9005
65.6169
65.6713
65.7084
66.2305
98.3218
61.5239
65.4223
65.1831
65.2265
65.2566
65.776
97.8025
60.8643
65.0832
64.7914
64.8325
65.3487
97.2874
60.3433
64.5438
64.2453
64.2781
64.7907
96.5145
59.9641
64.107
63.8052
63.8303
64.3404
95.3108
59.7245
63.6587
63.3735
63.3902
63.3907
63.899
)
;

boundaryField
{
    inlet
    {
        type            calculated;
        value           nonuniform List<scalar> 0();
    }
    outlet2
    {
        type            calculated;
        value           uniform 99.4306;
    }
    outlet1
    {
        type            calculated;
        value           uniform 99.4306;
    }
    wall
    {
        type            calculated;
        value           uniform 99.4306;
    }
    symmetryBottom
    {
        type            symmetry;
    }
    symmetryZ0
    {
        type            symmetry;
    }
    symmetryZ05
    {
        type            symmetry;
    }
    procBoundary0to1
    {
        type            processor;
        value           uniform 99.4306;
    }
}


// ************************************************************************* //
