/*--------------------------------*- C++ -*----------------------------------*\
| =========                 |                                                 |
| \\      /  F ield         | OpenFOAM: The Open Source CFD Toolbox           |
|  \\    /   O peration     | Version:  2412                                  |
|   \\  /    A nd           | Website:  www.openfoam.com                      |
|    \\/     M anipulation  |                                                 |
\*---------------------------------------------------------------------------*/
FoamFile
{
    version     2.0;
    format      ascii;
    arch        "LSB;label=32;scalar=64";
    class       volVectorField;
    location    "6.9e-06";
    object      rhoU;
}
// * * * * * * * * * * * * * * * * * * * * * * * * * * * * * * * * * * * * * //

dimensions      [0 0 0 0 0 0 0];

internalField   nonuniform List<vector> 
84
(
(0.071744 0.000191386 1.94559e-19)
(0.0446344 0.000121687 -1.83878e-19)
(0.0476898 0.000131603 -3.02986e-19)
(0.0474661 0.000132893 2.06006e-19)
(0.0474823 0.000134876 -3.19574e-20)
(0.0474856 0.000136881 2.62224e-20)
(0.0474895 0.000138949 2.90477e-19)
(0.0478672 0.000139797 3.10224e-20)
(0.0763604 -0.000209864 1.96978e-19)
(0.0475808 -0.000135885 -1.85282e-19)
(0.0508712 -0.00014619 -4.02859e-19)
(0.0506827 -0.000147978 5.60316e-20)
(0.0507497 -0.000150425 -7.49672e-19)
(0.0508045 -0.000152924 1.95136e-19)
(0.0508619 -0.000155507 6.14163e-19)
(0.0512597 -0.000156395 1.13381e-19)
(0.075433 -0.000186098 -7.7101e-19)
(0.0476997 -0.000155857 1.5837e-19)
(0.0504718 -0.000142361 2.18736e-19)
(0.050345 -0.000147243 -3.11829e-20)
(0.0504011 -0.000149416 -1.16375e-20)
(0.0504506 -0.000151895 2.89905e-19)
(0.0505019 -0.000154445 -2.51284e-19)
(0.0508977 -0.000155329 -2.77829e-19)
(0.0750892 -0.000193425 -7.35856e-19)
(0.0470145 -0.000137152 3.43918e-19)
(0.0502371 -0.000146602 -4.33877e-20)
(0.0500424 -0.000148409 -6.71176e-19)
(0.0500995 -0.000150875 6.81459e-19)
(0.0501444 -0.00015339 1.04177e-19)
(0.0505381 -0.00015427 -2.52654e-19)
(0.0749638 -0.000209657 -4.44183e-19)
(0.0466721 -0.00013501 -1.12291e-19)
(0.0498985 -0.000145767 1.49113e-20)
(0.0496982 -0.000147474 4.50341e-21)
(0.0497497 -0.000149913 -2.28579e-19)
(0.0497887 -0.000152397 2.09028e-19)
(0.0501803 -0.000153273 4.25493e-19)
(0.0744713 -0.000201933 -2.86609e-19)
(0.0463571 -0.000129761 3.63954e-19)
(0.0495578 -0.000140217 -4.54913e-20)
(0.0493535 -0.000141891 4.32375e-19)
(0.0493992 -0.00014428 -4.03772e-19)
(0.0494324 -0.000146713 3.3675e-19)
(0.049822 -0.000147557 -7.1614e-19)
(0.0739738 -0.000161356 -1.14215e-22)
(0.0460433 -0.000103979 3.31117e-19)
(0.0492152 -0.0001121 -4.32072e-20)
(0.0490073 -0.000113456 2.01844e-21)
(0.0490473 -0.000115346 3.54226e-19)
(0.0490747 -0.000117275 3.82879e-20)
(0.0494621 -0.000117953 3.50726e-19)
(0.0732609 -0.000117786 7.84318e-21)
(0.0459751 -0.000104689 6.06292e-21)
(0.0488487 -9.29064e-05 -2.23854e-21)
(0.0486733 -9.65432e-05 -5.77981e-21)
(0.0487049 -9.79704e-05 -1.11831e-21)
(0.0487269 -9.96352e-05 2.81428e-21)
(0.0491123 -0.000100209 -2.77044e-19)
(0.072806 -0.000112428 1.03358e-18)
(0.0454343 -7.93699e-05 -1.12522e-19)
(0.0485407 -8.49651e-05 -7.36068e-19)
(0.0483257 -8.59873e-05 -2.10921e-19)
(0.0483544 -8.74058e-05 4.12989e-19)
(0.0487371 -8.79169e-05 -5.8241e-20)
(0.0725817 -0.000118526 -3.6352e-19)
(0.0451522 -7.58439e-05 4.01698e-20)
(0.0482542 -8.19434e-05 -3.38354e-19)
(0.0480357 -8.28223e-05 3.82502e-19)
(0.0480604 -8.41212e-05 6.30838e-19)
(0.0484412 -8.46227e-05 -7.82439e-20)
(0.071971 -0.000123689 -4.56457e-19)
(0.0448478 -8.75257e-05 5.4343e-20)
(0.047905 -9.27825e-05 -3.01007e-21)
(0.0476838 -9.39348e-05 6.60728e-19)
(0.0477024 -9.54238e-05 6.62827e-19)
(0.0480811 -9.59896e-05 1.70361e-20)
(0.0710658 -2.03441e-05 -3.96011e-20)
(0.0446653 -0.000121197 3.17409e-21)
(0.0475667 -0.000107015 -1.79275e-22)
(0.0473578 -0.000110213 4.01147e-19)
(0.04737 -0.00011179 -5.11277e-20)
(0.0473705 -0.000113533 4.02395e-21)
(0.0477478 -0.000114213 -3.294e-19)
)
;

boundaryField
{
    inlet
    {
        type            calculated;
        value           nonuniform List<vector> 0();
    }
    outlet2
    {
        type            calculated;
        value           uniform (0 0 0);
    }
    outlet1
    {
        type            calculated;
        value           uniform (0 0 0);
    }
    wall
    {
        type            calculated;
        value           uniform (0 0 0);
    }
    symmetryBottom
    {
        type            symmetry;
    }
    symmetryZ0
    {
        type            symmetry;
    }
    symmetryZ05
    {
        type            symmetry;
    }
    procBoundary0to1
    {
        type            processor;
        value           uniform (0 0 0);
    }
}


// ************************************************************************* //
