/*--------------------------------*- C++ -*----------------------------------*\
| =========                 |                                                 |
| \\      /  F ield         | OpenFOAM: The Open Source CFD Toolbox           |
|  \\    /   O peration     | Version:  2412                                  |
|   \\  /    A nd           | Website:  www.openfoam.com                      |
|    \\/     M anipulation  |                                                 |
\*---------------------------------------------------------------------------*/
FoamFile
{
    version     2.0;
    format      ascii;
    arch        "LSB;label=32;scalar=64";
    class       volScalarField;
    location    "6.9e-06";
    object      T;
}
// * * * * * * * * * * * * * * * * * * * * * * * * * * * * * * * * * * * * * //

dimensions      [0 0 0 0 0 0 0];

internalField   nonuniform List<scalar> 
84
(
204.194
204.239
204.384
204.437
204.507
204.578
204.651
204.643
199.973
199.928
200.009
199.996
199.997
199.997
199.997
199.998
199.947
199.929
200.007
199.996
199.997
199.997
199.997
199.998
199.983
199.924
200.009
199.996
199.997
199.997
199.998
199.981
199.929
200.016
200.002
200.004
200.004
200.004
200.542
200.539
200.619
200.611
200.616
200.62
200.619
203.718
203.828
203.942
203.991
204.053
204.116
204.108
206.506
207.056
207.06
207.18
207.295
207.413
207.397
218.066
221.068
221.1
221.504
221.906
221.845
192.406
192.223
192.195
192.051
191.92
191.937
198.039
198.106
198.134
198.091
198.06
198.065
199.794
199.108
199.238
199.21
199.198
199.184
199.187
)
;

boundaryField
{
    inlet
    {
        type            calculated;
        value           nonuniform List<scalar> 0();
    }
    outlet2
    {
        type            calculated;
        value           uniform 0;
    }
    outlet1
    {
        type            calculated;
        value           uniform 0;
    }
    wall
    {
        type            calculated;
        value           uniform 0;
    }
    symmetryBottom
    {
        type            symmetry;
    }
    symmetryZ0
    {
        type            symmetry;
    }
    symmetryZ05
    {
        type            symmetry;
    }
    procBoundary0to1
    {
        type            processor;
        value           uniform 0;
    }
}


// ************************************************************************* //
