/*--------------------------------*- C++ -*----------------------------------*\
| =========                 |                                                 |
| \\      /  F ield         | OpenFOAM: The Open Source CFD Toolbox           |
|  \\    /   O peration     | Version:  2412                                  |
|   \\  /    A nd           | Website:  www.openfoam.com                      |
|    \\/     M anipulation  |                                                 |
\*---------------------------------------------------------------------------*/
FoamFile
{
    version     2.0;
    format      ascii;
    arch        "LSB;label=32;scalar=64";
    class       volScalarField;
    location    "4e-06";
    object      E_dof0;
}
// * * * * * * * * * * * * * * * * * * * * * * * * * * * * * * * * * * * * * //

dimensions      [0 0 0 0 0 0 0];

internalField   nonuniform List<scalar> 
84
(
99.4343
44.8224
52.9772
99.4492
44.8413
52.994
99.4454
44.8389
52.9914
99.4454
44.8389
52.9914
99.4454
44.8389
52.9914
99.4454
44.8389
52.9914
99.4454
44.8389
52.9914
99.4454
44.8389
52.9914
99.4454
44.8389
52.9914
99.4454
44.8389
52.9914
99.4454
44.8389
52.9914
99.4456
44.8346
52.9885
78.375
76.553
76.9348
81.3529
79.3535
79.7533
81.0438
79.0626
79.4585
80.7356
78.7727
78.8951
76.4313
80.4281
78.4836
78.6007
78.9088
80.1226
78.1962
78.3081
78.6153
79.8241
77.9151
78.022
78.3284
79.531
77.6391
77.741
78.0455
79.2644
77.3864
77.4839
77.495
76.5172
78.8823
77.0311
77.122
77.1278
77.4336
78.5979
76.7628
76.8489
76.8514
77.2123
78.3064
76.4882
76.5695
76.8713
)
;

boundaryField
{
    inlet
    {
        type            calculated;
        value           uniform 99.4306;
    }
    outlet2
    {
        type            calculated;
        value           uniform 99.4306;
    }
    outlet1
    {
        type            calculated;
        value           nonuniform List<scalar> 0();
    }
    wall
    {
        type            calculated;
        value           uniform 99.4306;
    }
    symmetryBottom
    {
        type            symmetry;
    }
    symmetryZ0
    {
        type            symmetry;
    }
    symmetryZ05
    {
        type            symmetry;
    }
    procBoundary1to0
    {
        type            processor;
        value           uniform 99.4306;
    }
}


// ************************************************************************* //
