/*--------------------------------*- C++ -*----------------------------------*\
| =========                 |                                                 |
| \\      /  F ield         | OpenFOAM: The Open Source CFD Toolbox           |
|  \\    /   O peration     | Version:  2412                                  |
|   \\  /    A nd           | Website:  www.openfoam.com                      |
|    \\/     M anipulation  |                                                 |
\*---------------------------------------------------------------------------*/
FoamFile
{
    version     2.0;
    format      ascii;
    arch        "LSB;label=32;scalar=64";
    class       volVectorField;
    location    "4e-06";
    object      rhoU;
}
// * * * * * * * * * * * * * * * * * * * * * * * * * * * * * * * * * * * * * //

dimensions      [0 0 0 0 0 0 0];

internalField   nonuniform List<vector> 
84
(
(0.0741076 -2.70995e-07 0)
(0.0336043 -4.85166e-07 0)
(0.03962 -4.05255e-07 -1.06952e-19)
(0.0741187 -9.57801e-05 0)
(0.0336184 -5.35244e-05 0)
(0.0396326 -6.04999e-05 -1.03827e-19)
(0.0741159 -9.55063e-05 0)
(0.0336167 -5.33617e-05 0)
(0.0396307 -6.03185e-05 1.39735e-19)
(0.0741159 -9.55063e-05 0)
(0.0336167 -5.33617e-05 0)
(0.0396307 -6.03185e-05 -1.79602e-19)
(0.0741159 -9.55063e-05 0)
(0.0336167 -5.33617e-05 0)
(0.0396307 -6.03185e-05 -2.92763e-19)
(0.0741159 -9.55063e-05 0)
(0.0336167 -5.33617e-05 0)
(0.0396307 -6.03185e-05 1.75645e-19)
(0.0741159 -9.55063e-05 0)
(0.0336167 -5.33617e-05 0)
(0.0396307 -6.03185e-05 -2.19416e-19)
(0.0741159 -9.55063e-05 0)
(0.0336167 -5.33617e-05 0)
(0.0396307 -6.03185e-05 -2.5061e-19)
(0.0741159 -9.55063e-05 0)
(0.0336167 -5.33617e-05 0)
(0.0396307 -6.03185e-05 1.03816e-19)
(0.0741159 -9.55063e-05 0)
(0.0336167 -5.33617e-05 0)
(0.0396307 -6.03185e-05 -2.17103e-19)
(0.0741159 -9.55063e-05 0)
(0.0336167 -5.33598e-05 0)
(0.0396307 -6.03172e-05 -5.44959e-19)
(0.0741161 -9.55191e-05 0)
(0.0336135 -5.30465e-05 0)
(0.0396285 -6.01023e-05 0)
(0.0584895 9.34475e-05 7.35167e-21)
(0.0571447 8.79046e-05 1.00398e-19)
(0.0574273 8.8463e-05 1.01457e-20)
(0.0606942 -9.39918e-05 7.07955e-21)
(0.0592188 -9.3136e-05 1.07018e-19)
(0.0595145 -9.34862e-05 -1.94529e-21)
(0.0604649 -9.36656e-05 -1.02996e-20)
(0.0590029 -9.28149e-05 -5.03824e-20)
(0.0592958 -9.30988e-05 -2.11275e-19)
(0.0602363 -9.3332e-05 1.32266e-20)
(0.0587878 -9.24952e-05 -2.22408e-21)
(0.0588779 -9.39404e-05 1.13564e-22)
(0.0570503 4.43905e-06 1.60312e-19)
(0.0600083 -9.30173e-05 -3.20381e-20)
(0.0585732 -9.2193e-05 4.48604e-22)
(0.0586594 -9.36286e-05 -1.63951e-21)
(0.058888 -9.38894e-05 1.65003e-19)
(0.0597799 -8.85702e-05 -1.29931e-20)
(0.0583584 -8.80219e-05 -1.04145e-19)
(0.0584407 -8.93936e-05 3.81538e-21)
(0.0586686 -8.96442e-05 1.09456e-19)
(0.0595509 -7.02151e-05 1.5739e-20)
(0.0581428 -7.07141e-05 -1.12936e-21)
(0.0582212 -7.17689e-05 -3.42837e-22)
(0.0584485 -7.19722e-05 -8.76528e-22)
(0.0593255 -5.8658e-05 1.97966e-20)
(0.0579306 -5.98091e-05 -1.04111e-19)
(0.0580052 -6.06724e-05 1.13081e-19)
(0.058231 -6.07976e-05 1.26736e-21)
(0.0590931 -5.19973e-05 -7.16369e-21)
(0.0577113 -5.35129e-05 -1.56668e-19)
(0.0577819 -5.42488e-05 -1.49166e-19)
(0.0577894 -5.50427e-05 1.78009e-19)
(0.057118 4.70508e-06 9.72599e-19)
(0.0588845 -5.12335e-05 1.68479e-20)
(0.0575165 -5.27815e-05 -1.56644e-19)
(0.0575837 -5.34846e-05 1.11298e-19)
(0.0575884 -5.42493e-05 2.3716e-19)
(0.0578158 -5.46374e-05 1.43221e-19)
(0.0586567 -5.82954e-05 4.07411e-20)
(0.0573018 -5.94149e-05 -1.69842e-21)
(0.0573652 -6.0241e-05 2.49382e-22)
(0.0573671 -6.1153e-05 -1.8445e-22)
(0.0576347 -6.43519e-05 -1.61463e-19)
(0.058437 -7.06373e-05 1.14751e-22)
(0.0570948 -7.09937e-05 1.52207e-19)
(0.0571545 -7.20207e-05 -9.72775e-21)
(0.0573784 -7.22034e-05 -2.37581e-19)
)
;

boundaryField
{
    inlet
    {
        type            calculated;
        value           uniform (0 0 0);
    }
    outlet2
    {
        type            calculated;
        value           uniform (0 0 0);
    }
    outlet1
    {
        type            calculated;
        value           nonuniform List<vector> 0();
    }
    wall
    {
        type            calculated;
        value           uniform (0 0 0);
    }
    symmetryBottom
    {
        type            symmetry;
    }
    symmetryZ0
    {
        type            symmetry;
    }
    symmetryZ05
    {
        type            symmetry;
    }
    procBoundary1to0
    {
        type            processor;
        value           uniform (0 0 0);
    }
}


// ************************************************************************* //
