/*--------------------------------*- C++ -*----------------------------------*\
| =========                 |                                                 |
| \\      /  F ield         | OpenFOAM: The Open Source CFD Toolbox           |
|  \\    /   O peration     | Version:  2412                                  |
|   \\  /    A nd           | Website:  www.openfoam.com                      |
|    \\/     M anipulation  |                                                 |
\*---------------------------------------------------------------------------*/
FoamFile
{
    version     2.0;
    format      ascii;
    arch        "LSB;label=32;scalar=64";
    class       volScalarField;
    location    "4e-06";
    object      T;
}
// * * * * * * * * * * * * * * * * * * * * * * * * * * * * * * * * * * * * * //

dimensions      [0 0 0 0 0 0 0];

internalField   nonuniform List<scalar> 
84
(
200.005
199.731
200.055
199.987
199.69
200.021
199.982
199.684
200.015
199.982
199.684
200.015
199.982
199.684
200.015
199.982
199.684
200.015
199.982
199.684
200.015
199.982
199.684
200.015
199.982
199.684
200.015
199.982
199.684
200.015
199.982
199.684
200.015
199.982
199.672
200.008
202.48
202.377
202.383
200.014
199.996
199.999
200.014
199.996
199.999
200.014
199.996
199.999
200.012
200.016
199.998
200.001
200.001
200.434
200.399
200.407
200.407
202.22
202.123
202.16
202.158
203.901
203.744
203.81
203.805
210.725
210.29
210.476
210.636
199.348
195.84
195.957
195.892
195.831
195.722
199.018
199.035
199.021
199.007
199.056
199.597
199.594
199.589
199.59
)
;

boundaryField
{
    inlet
    {
        type            calculated;
        value           uniform 0;
    }
    outlet2
    {
        type            calculated;
        value           uniform 0;
    }
    outlet1
    {
        type            calculated;
        value           nonuniform List<scalar> 0();
    }
    wall
    {
        type            calculated;
        value           uniform 0;
    }
    symmetryBottom
    {
        type            symmetry;
    }
    symmetryZ0
    {
        type            symmetry;
    }
    symmetryZ05
    {
        type            symmetry;
    }
    procBoundary1to0
    {
        type            processor;
        value           uniform 0;
    }
}


// ************************************************************************* //
