/*--------------------------------*- C++ -*----------------------------------*\
| =========                 |                                                 |
| \\      /  F ield         | OpenFOAM: The Open Source CFD Toolbox           |
|  \\    /   O peration     | Version:  2412                                  |
|   \\  /    A nd           | Website:  www.openfoam.com                      |
|    \\/     M anipulation  |                                                 |
\*---------------------------------------------------------------------------*/
FoamFile
{
    version     2.0;
    format      ascii;
    arch        "LSB;label=32;scalar=64";
    class       volVectorField;
    location    "4e-06";
    object      U;
}
// * * * * * * * * * * * * * * * * * * * * * * * * * * * * * * * * * * * * * //

dimensions      [0 0 0 0 0 0 0];

internalField   nonuniform List<vector> 
84
(
(2636.39 -0.00964069 0)
(2620.31 -0.0378311 0)
(2626.96 -0.02687 -7.09135e-15)
(2636.39 -3.40688 0)
(2620.32 -4.17185 0)
(2626.96 -4.01011 -6.88197e-15)
(2636.39 -3.39727 0)
(2620.32 -4.15938 0)
(2626.96 -3.99827 9.26246e-15)
(2636.39 -3.39727 0)
(2620.32 -4.15937 0)
(2626.96 -3.99827 -1.19051e-14)
(2636.39 -3.39727 0)
(2620.32 -4.15937 0)
(2626.96 -3.99827 -1.94061e-14)
(2636.39 -3.39727 0)
(2620.32 -4.15937 0)
(2626.96 -3.99827 1.16428e-14)
(2636.39 -3.39727 0)
(2620.32 -4.15937 0)
(2626.96 -3.99827 -1.45442e-14)
(2636.39 -3.39727 0)
(2620.32 -4.15937 0)
(2626.96 -3.99827 -1.66119e-14)
(2636.39 -3.39727 0)
(2620.32 -4.15937 0)
(2626.96 -3.99827 6.88153e-15)
(2636.39 -3.39727 0)
(2620.32 -4.15937 0)
(2626.96 -3.99827 -1.43909e-14)
(2636.39 -3.39727 0)
(2620.32 -4.15923 0)
(2626.96 -3.99819 -3.61232e-14)
(2636.39 -3.39772 0)
(2620.32 -4.1352 0)
(2626.96 -3.98417 0)
(2632.18 4.20537 3.30844e-16)
(2631.49 4.04797 4.62329e-15)
(2631.6 4.05381 4.64925e-16)
(2633.57 -4.07838 3.07187e-16)
(2632.82 -4.14076 4.75795e-15)
(2632.94 -4.13585 -8.60599e-17)
(2633.51 -4.07954 -4.48593e-16)
(2632.76 -4.14149 -2.24811e-15)
(2632.88 -4.13381 -9.38114e-15)
(2633.44 -4.08034 5.78248e-16)
(2632.71 -4.14223 -9.96015e-17)
(2632.76 -4.20061 5.07808e-18)
(2632.24 0.204813 7.3966e-15)
(2633.38 -4.08194 -1.40595e-15)
(2632.65 -4.14373 2.01631e-17)
(2632.71 -4.20216 -7.35833e-17)
(2632.77 -4.19762 7.37696e-15)
(2633.3 -3.90151 -5.72343e-16)
(2632.57 -3.9707 -4.69801e-15)
(2632.63 -4.02698 1.71875e-16)
(2632.69 -4.02268 4.91171e-15)
(2633.17 -3.10471 6.95934e-16)
(2632.43 -3.2016 -5.11323e-17)
(2632.49 -3.24505 -1.55015e-17)
(2632.55 -3.24166 -3.94793e-17)
(2633.07 -2.60345 8.78644e-16)
(2632.34 -2.7177 -4.73075e-15)
(2632.39 -2.75343 5.13183e-15)
(2632.45 -2.74848 5.72935e-17)
(2632.98 -2.31682 -3.19189e-16)
(2632.22 -2.44073 -7.14563e-15)
(2632.27 -2.47132 -6.7953e-15)
(2632.27 -2.50716 8.1082e-15)
(2632.22 0.216829 4.48212e-14)
(2633.02 -2.29091 7.53353e-16)
(2632.33 -2.41563 -7.16906e-15)
(2632.38 -2.44499 5.08788e-15)
(2632.38 -2.47975 1.08406e-14)
(2632.45 -2.48773 6.52108e-15)
(2632.97 -2.61676 1.82878e-15)
(2632.27 -2.72934 -7.80205e-17)
(2632.32 -2.76429 1.14434e-17)
(2632.32 -2.80604 -8.4636e-18)
(2632.4 -2.9392 -7.37462e-15)
(2632.94 -3.18263 5.17023e-18)
(2632.24 -3.27302 7.01717e-15)
(2632.29 -3.31696 -4.48018e-16)
(2632.35 -3.31247 -1.08995e-14)
)
;

boundaryField
{
    inlet
    {
        type            calculated;
        value           uniform (0 0 0);
    }
    outlet2
    {
        type            calculated;
        value           uniform (0 0 0);
    }
    outlet1
    {
        type            calculated;
        value           nonuniform List<vector> 0();
    }
    wall
    {
        type            calculated;
        value           uniform (0 0 0);
    }
    symmetryBottom
    {
        type            symmetry;
    }
    symmetryZ0
    {
        type            symmetry;
    }
    symmetryZ05
    {
        type            symmetry;
    }
    procBoundary1to0
    {
        type            processor;
        value           uniform (0 0 0);
    }
}


// ************************************************************************* //
