/*--------------------------------*- C++ -*----------------------------------*\
| =========                 |                                                 |
| \\      /  F ield         | OpenFOAM: The Open Source CFD Toolbox           |
|  \\    /   O peration     | Version:  2412                                  |
|   \\  /    A nd           | Website:  www.openfoam.com                      |
|    \\/     M anipulation  |                                                 |
\*---------------------------------------------------------------------------*/
FoamFile
{
    version     2.0;
    format      ascii;
    arch        "LSB;label=32;scalar=64";
    class       volScalarField;
    location    "7.2e-06";
    object      E;
}
// * * * * * * * * * * * * * * * * * * * * * * * * * * * * * * * * * * * * * //

dimensions      [0 0 0 0 0 0 0];

internalField   nonuniform List<scalar> 
84
(
95.937
58.1699
62.6391
62.2949
62.3203
62.3247
62.3302
62.8535
102.43
62.2133
67.0364
66.7377
66.8335
66.9092
66.9886
67.5412
101.102
62.4197
66.4743
66.2724
66.3518
66.4201
66.4911
67.0407
100.623
61.4397
66.1598
65.8532
65.9354
65.9972
66.5439
100.466
60.9656
65.6923
65.3779
65.4522
65.5061
66.0497
99.7772
60.536
65.2241
64.9046
64.9709
65.0167
65.5573
99.1011
60.1197
64.766
64.4422
64.5007
64.5387
65.0763
98.1109
60.0651
64.2708
63.9984
64.045
64.0758
64.6106
97.5699
59.373
63.9271
63.5955
63.6404
64.1716
97.0464
58.8424
63.3767
63.0385
63.0749
63.6022
96.2355
58.4579
62.9277
62.5868
62.6152
63.1398
94.985
58.2235
62.467
62.1456
62.1651
62.1656
62.6884
)
;

boundaryField
{
    inlet
    {
        type            calculated;
        value           nonuniform List<scalar> 0();
    }
    outlet2
    {
        type            calculated;
        value           uniform 0;
    }
    outlet1
    {
        type            calculated;
        value           uniform 0;
    }
    wall
    {
        type            calculated;
        value           uniform 0;
    }
    symmetryBottom
    {
        type            symmetry;
    }
    symmetryZ0
    {
        type            symmetry;
    }
    symmetryZ05
    {
        type            symmetry;
    }
    procBoundary0to1
    {
        type            processor;
        value           uniform 0;
    }
}


// ************************************************************************* //
