/*--------------------------------*- C++ -*----------------------------------*\
| =========                 |                                                 |
| \\      /  F ield         | OpenFOAM: The Open Source CFD Toolbox           |
|  \\    /   O peration     | Version:  2412                                  |
|   \\  /    A nd           | Website:  www.openfoam.com                      |
|    \\/     M anipulation  |                                                 |
\*---------------------------------------------------------------------------*/
FoamFile
{
    version     2.0;
    format      ascii;
    arch        "LSB;label=32;scalar=64";
    class       volScalarField;
    location    "9.5e-06";
    object      E_dof0;
}
// * * * * * * * * * * * * * * * * * * * * * * * * * * * * * * * * * * * * * //

dimensions      [0 0 0 0 0 0 0];

internalField   nonuniform List<scalar> 
84
(
119.739
5.82263
16.1873
119.781
5.91215
15.4714
119.808
5.90456
15.5634
119.809
5.89381
15.6567
119.81
5.88307
15.7499
119.811
5.87238
15.8425
119.812
5.86174
15.9346
119.813
5.85114
16.0262
119.814
5.84058
16.1172
119.815
5.83007
16.2077
119.817
5.81957
16.2977
119.818
5.80898
16.3871
58.0962
54.3439
51.4438
62.3655
58.196
55.0792
61.8802
57.7567
54.7222
61.3304
57.0917
57.9784
48.6092
60.7785
56.617
57.0574
53.6984
60.2322
56.1266
56.5465
53.2985
59.6905
55.6402
56.047
52.8316
59.1535
55.1579
55.5507
52.3924
58.621
54.6842
54.9159
55.2633
49.4033
58.0933
54.2098
54.4405
54.584
51.446
57.57
53.7397
53.9605
54.0887
51.0575
57.0517
53.2701
53.6113
50.6256
)
;

boundaryField
{
    inlet
    {
        type            calculated;
        value           uniform 99.4306;
    }
    outlet2
    {
        type            calculated;
        value           uniform 99.4306;
    }
    outlet1
    {
        type            calculated;
        value           nonuniform List<scalar> 0();
    }
    wall
    {
        type            calculated;
        value           uniform 99.4306;
    }
    symmetryBottom
    {
        type            symmetry;
    }
    symmetryZ0
    {
        type            symmetry;
    }
    symmetryZ05
    {
        type            symmetry;
    }
    procBoundary1to0
    {
        type            processor;
        value           uniform 99.4306;
    }
}


// ************************************************************************* //
