/*--------------------------------*- C++ -*----------------------------------*\
| =========                 |                                                 |
| \\      /  F ield         | OpenFOAM: The Open Source CFD Toolbox           |
|  \\    /   O peration     | Version:  2412                                  |
|   \\  /    A nd           | Website:  www.openfoam.com                      |
|    \\/     M anipulation  |                                                 |
\*---------------------------------------------------------------------------*/
FoamFile
{
    version     2.0;
    format      ascii;
    arch        "LSB;label=32;scalar=64";
    class       volScalarField;
    location    "9.5e-06";
    object      rho;
}
// * * * * * * * * * * * * * * * * * * * * * * * * * * * * * * * * * * * * * //

dimensions      [0 0 0 0 0 0 0];

internalField   nonuniform List<scalar> 
84
(
3.37359e-05
1.83468e-06
4.70153e-06
3.37478e-05
1.8595e-06
4.50231e-06
3.37553e-05
1.85749e-06
4.52792e-06
3.37555e-05
1.85453e-06
4.55384e-06
3.37558e-05
1.85158e-06
4.57973e-06
3.37561e-05
1.84864e-06
4.60546e-06
3.37564e-05
1.84572e-06
4.63104e-06
3.37567e-05
1.84281e-06
4.65648e-06
3.3757e-05
1.83991e-06
4.68177e-06
3.37573e-05
1.83702e-06
4.70692e-06
3.37576e-05
1.83413e-06
4.73192e-06
3.3758e-05
1.83122e-06
4.75676e-06
1.65168e-05
1.5473e-05
1.46719e-05
1.7715e-05
1.65557e-05
1.56952e-05
1.75787e-05
1.64321e-05
1.55941e-05
1.74243e-05
1.62465e-05
1.64912e-05
1.38791e-05
1.72694e-05
1.61128e-05
1.62338e-05
1.53065e-05
1.7116e-05
1.59749e-05
1.60902e-05
1.51936e-05
1.69639e-05
1.58381e-05
1.59498e-05
1.50621e-05
1.68132e-05
1.57024e-05
1.58102e-05
1.49381e-05
1.66636e-05
1.55691e-05
1.56329e-05
1.57288e-05
1.4099e-05
1.65154e-05
1.54356e-05
1.54991e-05
1.55384e-05
1.46717e-05
1.63685e-05
1.53033e-05
1.5364e-05
1.53991e-05
1.45619e-05
1.62229e-05
1.51712e-05
1.52647e-05
1.444e-05
)
;

boundaryField
{
    inlet
    {
        type            calculated;
        value           uniform 0;
    }
    outlet2
    {
        type            calculated;
        value           uniform 0;
    }
    outlet1
    {
        type            calculated;
        value           nonuniform List<scalar> 0();
    }
    wall
    {
        type            calculated;
        value           uniform 0;
    }
    symmetryBottom
    {
        type            symmetry;
    }
    symmetryZ0
    {
        type            symmetry;
    }
    symmetryZ05
    {
        type            symmetry;
    }
    procBoundary1to0
    {
        type            processor;
        value           uniform 0;
    }
}


// ************************************************************************* //
