/*--------------------------------*- C++ -*----------------------------------*\
| =========                 |                                                 |
| \\      /  F ield         | OpenFOAM: The Open Source CFD Toolbox           |
|  \\    /   O peration     | Version:  2412                                  |
|   \\  /    A nd           | Website:  www.openfoam.com                      |
|    \\/     M anipulation  |                                                 |
\*---------------------------------------------------------------------------*/
FoamFile
{
    version     2.0;
    format      ascii;
    arch        "LSB;label=32;scalar=64";
    class       volScalarField;
    location    "5e-06";
    object      E_dof0;
}
// * * * * * * * * * * * * * * * * * * * * * * * * * * * * * * * * * * * * * //

dimensions      [0 0 0 0 0 0 0];

internalField   nonuniform List<scalar> 
84
(
97.7635
69.6503
71.9479
71.8277
71.8356
71.8385
71.8418
72.2454
102.349
72.9958
75.4472
75.375
75.438
75.4976
75.5593
75.9786
101.539
72.9574
75.0486
75.0049
75.06
75.1136
75.169
75.5866
101.181
72.3499
74.7601
74.679
74.7316
74.7805
75.1966
100.978
71.9818
74.3913
74.3043
74.3508
74.3935
74.808
100.499
71.6308
74.0238
73.9316
73.972
74.0085
74.4214
100.029
71.2888
73.6645
73.5672
73.6018
73.6322
74.0435
99.3936
71.1266
73.2958
73.2122
73.24
73.2646
73.6745
99.0143
70.6683
73.0066
72.9005
72.9246
73.3329
98.5765
70.2285
72.5557
72.4432
72.4602
72.8665
98.0392
69.9041
72.2062
72.0891
72.1002
72.505
97.1434
69.6567
71.846
71.7325
71.7376
71.7382
72.1417
)
;

boundaryField
{
    inlet
    {
        type            calculated;
        value           nonuniform List<scalar> 0();
    }
    outlet2
    {
        type            calculated;
        value           uniform 99.4306;
    }
    outlet1
    {
        type            calculated;
        value           uniform 99.4306;
    }
    wall
    {
        type            calculated;
        value           uniform 99.4306;
    }
    symmetryBottom
    {
        type            symmetry;
    }
    symmetryZ0
    {
        type            symmetry;
    }
    symmetryZ05
    {
        type            symmetry;
    }
    procBoundary0to1
    {
        type            processor;
        value           uniform 99.4306;
    }
}


// ************************************************************************* //
