/*--------------------------------*- C++ -*----------------------------------*\
| =========                 |                                                 |
| \\      /  F ield         | OpenFOAM: The Open Source CFD Toolbox           |
|  \\    /   O peration     | Version:  2412                                  |
|   \\  /    A nd           | Website:  www.openfoam.com                      |
|    \\/     M anipulation  |                                                 |
\*---------------------------------------------------------------------------*/
FoamFile
{
    version     2.0;
    format      ascii;
    arch        "LSB;label=32;scalar=64";
    class       volScalarField;
    location    "5e-06";
    object      rho;
}
// * * * * * * * * * * * * * * * * * * * * * * * * * * * * * * * * * * * * * //

dimensions      [0 0 0 0 0 0 0];

internalField   nonuniform List<scalar> 
84
(
2.76612e-05
1.97894e-05
2.04255e-05
2.03927e-05
2.0395e-05
2.0396e-05
2.03971e-05
2.05102e-05
2.89304e-05
2.07184e-05
2.13965e-05
2.13772e-05
2.13948e-05
2.14115e-05
2.14288e-05
2.15462e-05
2.87047e-05
2.07064e-05
2.1285e-05
2.12734e-05
2.12888e-05
2.13039e-05
2.13194e-05
2.14363e-05
2.86048e-05
2.05371e-05
2.12039e-05
2.11821e-05
2.11968e-05
2.12105e-05
2.1327e-05
2.85474e-05
2.0434e-05
2.11006e-05
2.1077e-05
2.109e-05
2.1102e-05
2.12181e-05
2.84126e-05
2.0335e-05
2.09971e-05
2.09721e-05
2.09834e-05
2.09936e-05
2.11092e-05
2.82774e-05
2.02368e-05
2.08938e-05
2.08674e-05
2.0877e-05
2.08854e-05
2.10006e-05
2.8096e-05
2.01878e-05
2.07874e-05
2.07647e-05
2.07723e-05
2.07791e-05
2.08939e-05
2.79716e-05
2.0045e-05
2.06908e-05
2.06616e-05
2.06679e-05
2.07822e-05
2.7891e-05
1.9952e-05
2.05965e-05
2.0566e-05
2.05709e-05
2.06848e-05
2.77301e-05
1.98538e-05
2.0491e-05
2.0459e-05
2.04621e-05
2.05756e-05
2.74755e-05
1.97828e-05
2.03881e-05
2.03572e-05
2.03586e-05
2.03587e-05
2.04718e-05
)
;

boundaryField
{
    inlet
    {
        type            calculated;
        value           nonuniform List<scalar> 0();
    }
    outlet2
    {
        type            calculated;
        value           uniform 0;
    }
    outlet1
    {
        type            calculated;
        value           uniform 0;
    }
    wall
    {
        type            calculated;
        value           uniform 0;
    }
    symmetryBottom
    {
        type            symmetry;
    }
    symmetryZ0
    {
        type            symmetry;
    }
    symmetryZ05
    {
        type            symmetry;
    }
    procBoundary0to1
    {
        type            processor;
        value           uniform 0;
    }
}


// ************************************************************************* //
