/*--------------------------------*- C++ -*----------------------------------*\
| =========                 |                                                 |
| \\      /  F ield         | OpenFOAM: The Open Source CFD Toolbox           |
|  \\    /   O peration     | Version:  2412                                  |
|   \\  /    A nd           | Website:  www.openfoam.com                      |
|    \\/     M anipulation  |                                                 |
\*---------------------------------------------------------------------------*/
FoamFile
{
    version     2.0;
    format      ascii;
    arch        "LSB;label=32;scalar=64";
    class       volVectorField;
    location    "5e-06";
    object      rhoU_dof0;
}
// * * * * * * * * * * * * * * * * * * * * * * * * * * * * * * * * * * * * * //

dimensions      [0 0 0 0 0 0 0];

internalField   nonuniform List<vector> 
84
(
(0.0728834 0.000142721 1.41172e-19)
(0.0520313 0.000104013 -1.43611e-19)
(0.0537259 0.000108822 -2.68301e-19)
(0.0536379 0.000110238 1.56765e-19)
(0.0536437 0.000111882 -1.67314e-20)
(0.053646 0.000113569 1.8974e-20)
(0.0536484 0.000115307 2.55032e-19)
(0.053948 0.000115796 3.88346e-20)
(0.0762759 -0.000152125 1.46372e-19)
(0.0545103 -0.000112336 -1.40578e-19)
(0.0563181 -0.000117266 -3.35983e-19)
(0.0562656 -0.000118962 3.4227e-20)
(0.0563123 -0.000120876 -6.37728e-19)
(0.0563566 -0.000122847 1.31555e-19)
(0.0564024 -0.000124884 5.07349e-19)
(0.0567134 -0.000125381 1.02179e-19)
(0.0756764 -0.000138973 -6.02243e-19)
(0.0544802 -0.000122837 1.09094e-19)
(0.0560226 -0.000115623 1.95179e-19)
(0.055991 -0.000118467 -1.83599e-20)
(0.0560318 -0.000120299 -7.62212e-21)
(0.0560716 -0.000122254 2.50761e-19)
(0.0561127 -0.000124272 -2.20261e-19)
(0.0564225 -0.000124767 -2.43713e-19)
(0.0754113 -0.000143438 -5.839e-19)
(0.0540307 -0.0001134 2.74466e-19)
(0.0558081 -0.000118002 -2.54498e-20)
(0.0557491 -0.000119724 -5.66815e-19)
(0.0557881 -0.000121665 5.5364e-19)
(0.0558244 -0.000123662 9.86469e-20)
(0.056133 -0.000124157 -2.21923e-19)
(0.0752601 -0.000152587 -3.63221e-19)
(0.0537575 -0.000112382 -9.93666e-20)
(0.0555344 -0.000117499 9.14168e-21)
(0.055471 -0.000119184 2.80096e-21)
(0.0555054 -0.000121108 -2.09363e-19)
(0.0555371 -0.000123088 1.58804e-19)
(0.0558446 -0.000123581 3.5333e-19)
(0.0749021 -0.000146271 -2.18454e-19)
(0.0534951 -0.000107561 2.99621e-19)
(0.0552598 -0.000112512 -2.67064e-20)
(0.0551924 -0.000114146 3.6174e-19)
(0.0552224 -0.000116011 -3.26894e-19)
(0.0552494 -0.000117932 2.79018e-19)
(0.0555557 -0.000118406 -6.08852e-19)
(0.0745413 -0.00011725 -7.00348e-23)
(0.0532327 -8.62978e-05 2.8617e-19)
(0.0549841 -9.01847e-05 -2.5994e-20)
(0.0549128 -9.14931e-05 3.4822e-22)
(0.0549383 -9.2979e-05 2.99428e-19)
(0.0549606 -9.45087e-05 4.04725e-20)
(0.0552658 -9.48901e-05 2.96714e-19)
(0.074059 -8.87707e-05 4.45721e-21)
(0.0531024 -8.1728e-05 3.20022e-21)
(0.0547011 -7.54947e-05 -1.39444e-21)
(0.0546397 -7.75304e-05 -3.41362e-21)
(0.05466 -7.87447e-05 -7.19157e-22)
(0.0546779 -8.00503e-05 1.49456e-21)
(0.0549819 -8.03734e-05 -2.51721e-19)
(0.0737275 -8.40793e-05 7.68713e-19)
(0.0527218 -6.61317e-05 -6.17814e-20)
(0.0544434 -6.88861e-05 -6.25204e-19)
(0.0543648 -6.98841e-05 -2.11448e-19)
(0.0543814 -7.10151e-05 3.38581e-19)
(0.0546841 -7.13054e-05 -2.98416e-20)
(0.0735171 -8.78753e-05 -2.76001e-19)
(0.0524815 -6.43645e-05 2.21243e-20)
(0.0541993 -6.73252e-05 -2.87416e-19)
(0.0541172 -6.82511e-05 3.15229e-19)
(0.0541303 -6.93165e-05 5.30176e-19)
(0.0544318 -6.96041e-05 -5.01009e-20)
(0.0730916 -9.33842e-05 -3.88222e-19)
(0.0522214 -7.32724e-05 3.01079e-20)
(0.0539196 -7.59859e-05 -9.76436e-22)
(0.0538339 -7.70795e-05 5.53269e-19)
(0.0538422 -7.82938e-05 5.74148e-19)
(0.0541426 -7.86173e-05 2.46971e-20)
(0.0724183 -1.16654e-05 -2.43235e-20)
(0.052034 -9.68216e-05 1.34578e-21)
(0.053648 -8.86007e-05 -5.27905e-23)
(0.0535648 -9.0617e-05 3.37491e-19)
(0.0535686 -9.19765e-05 -3.05986e-20)
(0.0535691 -9.3413e-05 1.6977e-21)
(0.0538685 -9.38029e-05 -2.89231e-19)
)
;

boundaryField
{
    inlet
    {
        type            calculated;
        value           nonuniform List<vector> 0();
    }
    outlet2
    {
        type            calculated;
        value           uniform (0.0741049 0 0);
    }
    outlet1
    {
        type            calculated;
        value           uniform (0.0741049 0 0);
    }
    wall
    {
        type            calculated;
        value           uniform (0.0741049 0 0);
    }
    symmetryBottom
    {
        type            symmetry;
    }
    symmetryZ0
    {
        type            symmetry;
    }
    symmetryZ05
    {
        type            symmetry;
    }
    procBoundary0to1
    {
        type            processor;
        value           uniform (0.0741049 0 0);
    }
}


// ************************************************************************* //
