/*--------------------------------*- C++ -*----------------------------------*\
| =========                 |                                                 |
| \\      /  F ield         | OpenFOAM: The Open Source CFD Toolbox           |
|  \\    /   O peration     | Version:  2412                                  |
|   \\  /    A nd           | Website:  www.openfoam.com                      |
|    \\/     M anipulation  |                                                 |
\*---------------------------------------------------------------------------*/
FoamFile
{
    version     2.0;
    format      ascii;
    arch        "LSB;label=32;scalar=64";
    class       volScalarField;
    location    "5e-06";
    object      T;
}
// * * * * * * * * * * * * * * * * * * * * * * * * * * * * * * * * * * * * * //

dimensions      [0 0 0 0 0 0 0];

internalField   nonuniform List<scalar> 
84
(
203.036
203.086
203.166
203.209
203.259
203.31
203.363
203.358
199.984
199.968
200.002
199.998
199.998
199.998
199.998
199.998
199.968
199.969
200.001
199.998
199.998
199.998
199.998
199.998
199.988
199.966
200.002
199.998
199.998
199.998
199.998
199.988
199.97
200.006
200.001
200.002
200.002
200.002
200.457
200.468
200.505
200.506
200.511
200.516
200.516
202.71
202.795
202.861
202.9
202.945
202.991
202.987
204.719
205.045
205.073
205.155
205.237
205.321
205.313
212.811
214.385
214.521
214.774
215.034
215.005
194.599
194.462
194.418
194.322
194.229
194.238
198.63
198.664
198.67
198.644
198.622
198.624
199.882
199.399
199.453
199.439
199.43
199.421
199.422
)
;

boundaryField
{
    inlet
    {
        type            calculated;
        value           nonuniform List<scalar> 0();
    }
    outlet2
    {
        type            calculated;
        value           uniform 0;
    }
    outlet1
    {
        type            calculated;
        value           uniform 0;
    }
    wall
    {
        type            calculated;
        value           uniform 0;
    }
    symmetryBottom
    {
        type            symmetry;
    }
    symmetryZ0
    {
        type            symmetry;
    }
    symmetryZ05
    {
        type            symmetry;
    }
    procBoundary0to1
    {
        type            processor;
        value           uniform 0;
    }
}


// ************************************************************************* //
