/*--------------------------------*- C++ -*----------------------------------*\
| =========                 |                                                 |
| \\      /  F ield         | OpenFOAM: The Open Source CFD Toolbox           |
|  \\    /   O peration     | Version:  2412                                  |
|   \\  /    A nd           | Website:  www.openfoam.com                      |
|    \\/     M anipulation  |                                                 |
\*---------------------------------------------------------------------------*/
FoamFile
{
    version     2.0;
    format      ascii;
    arch        "LSB;label=32;scalar=64";
    class       volScalarField;
    location    "7e-07";
    object      rho_dof0;
}
// * * * * * * * * * * * * * * * * * * * * * * * * * * * * * * * * * * * * * //

dimensions      [0 0 0 0 0 0 0];

internalField   nonuniform List<scalar> 
84
(
2.81085e-05
2.50697e-05
2.5142e-05
2.81087e-05
2.50704e-05
2.51427e-05
2.81086e-05
2.50703e-05
2.51426e-05
2.81086e-05
2.50703e-05
2.51426e-05
2.81086e-05
2.50703e-05
2.51426e-05
2.81086e-05
2.50703e-05
2.51426e-05
2.81086e-05
2.50703e-05
2.51426e-05
2.81086e-05
2.50703e-05
2.51426e-05
2.81086e-05
2.50703e-05
2.51426e-05
2.81086e-05
2.50703e-05
2.51426e-05
2.81086e-05
2.50703e-05
2.51426e-05
2.81086e-05
2.50701e-05
2.51424e-05
2.68863e-05
2.68688e-05
2.68861e-05
2.70536e-05
2.70367e-05
2.70542e-05
2.70364e-05
2.70195e-05
2.70369e-05
2.70193e-05
2.70023e-05
2.70044e-05
2.68641e-05
2.70021e-05
2.69851e-05
2.69869e-05
2.70045e-05
2.6985e-05
2.69679e-05
2.69695e-05
2.6987e-05
2.69679e-05
2.69508e-05
2.69521e-05
2.69696e-05
2.69508e-05
2.69336e-05
2.69347e-05
2.69522e-05
2.69337e-05
2.69164e-05
2.69173e-05
2.6918e-05
2.68648e-05
2.69168e-05
2.68994e-05
2.69e-05
2.69005e-05
2.69183e-05
2.68997e-05
2.68823e-05
2.68826e-05
2.68829e-05
2.6901e-05
2.68826e-05
2.68651e-05
2.68652e-05
2.68827e-05
)
;

boundaryField
{
    inlet
    {
        type            calculated;
        value           uniform 2.81085e-05;
    }
    outlet2
    {
        type            calculated;
        value           uniform 2.81085e-05;
    }
    outlet1
    {
        type            calculated;
        value           nonuniform List<scalar> 0();
    }
    wall
    {
        type            calculated;
        value           uniform 2.81085e-05;
    }
    symmetryBottom
    {
        type            symmetry;
    }
    symmetryZ0
    {
        type            symmetry;
    }
    symmetryZ05
    {
        type            symmetry;
    }
    procBoundary1to0
    {
        type            processor;
        value           uniform 2.81085e-05;
    }
}


// ************************************************************************* //
