/*--------------------------------*- C++ -*----------------------------------*\
| =========                 |                                                 |
| \\      /  F ield         | OpenFOAM: The Open Source CFD Toolbox           |
|  \\    /   O peration     | Version:  2412                                  |
|   \\  /    A nd           | Website:  www.openfoam.com                      |
|    \\/     M anipulation  |                                                 |
\*---------------------------------------------------------------------------*/
FoamFile
{
    version     2.0;
    format      ascii;
    arch        "LSB;label=32;scalar=64";
    class       volVectorField;
    location    "7e-07";
    object      rhoU_dof0;
}
// * * * * * * * * * * * * * * * * * * * * * * * * * * * * * * * * * * * * * //

dimensions      [0 0 0 0 0 0 0];

internalField   nonuniform List<vector> 
84
(
(0.074105 -6.52439e-09 0)
(0.0660465 -7.0017e-08 0)
(0.0662394 -6.74701e-08 -2.49801e-20)
(0.0741053 -1.91694e-05 0)
(0.0660483 -1.78072e-05 0)
(0.0662412 -1.78376e-05 -2.18576e-20)
(0.0741052 -1.91595e-05 0)
(0.0660482 -1.77988e-05 0)
(0.0662411 -1.78291e-05 3.90315e-20)
(0.0741052 -1.91595e-05 0)
(0.0660482 -1.77988e-05 0)
(0.0662411 -1.78291e-05 -4.9961e-20)
(0.0741052 -1.91595e-05 0)
(0.0660482 -1.77988e-05 0)
(0.0662411 -1.78291e-05 -8.74309e-20)
(0.0741052 -1.91595e-05 0)
(0.0660482 -1.77988e-05 0)
(0.0662411 -1.78291e-05 4.83991e-20)
(0.0741052 -1.91595e-05 0)
(0.0660482 -1.77988e-05 0)
(0.0662411 -1.78291e-05 -6.08899e-20)
(0.0741052 -1.91595e-05 0)
(0.0660482 -1.77988e-05 0)
(0.0662411 -1.78291e-05 -7.18183e-20)
(0.0741052 -1.91595e-05 0)
(0.0660482 -1.77988e-05 0)
(0.0662411 -1.78291e-05 2.49801e-20)
(0.0741052 -1.91595e-05 0)
(0.0660482 -1.77988e-05 0)
(0.0662411 -1.78291e-05 -5.9329e-20)
(0.0741052 -1.91595e-05 0)
(0.0660482 -1.77987e-05 0)
(0.0662411 -1.7829e-05 -1.56127e-19)
(0.0741052 -1.91621e-05 0)
(0.0660476 -1.77373e-05 0)
(0.0662405 -1.77701e-05 0)
(0.0708603 1.94125e-05 2.38303e-22)
(0.0708137 1.94877e-05 1.94374e-20)
(0.0708598 1.94977e-05 1.9793e-21)
(0.0713076 -1.93221e-05 2.13007e-22)
(0.0712627 -1.95846e-05 2.20588e-20)
(0.0713089 -1.9592e-05 -4.08502e-23)
(0.0712621 -1.93132e-05 -3.60162e-22)
(0.071217 -1.95755e-05 -7.79106e-21)
(0.0712632 -1.95813e-05 -4.32147e-20)
(0.0712166 -1.93042e-05 4.9534e-22)
(0.0711714 -1.95663e-05 -3.30758e-22)
(0.0711769 -1.98456e-05 2.97977e-24)
(0.0708048 1.06651e-07 3.04896e-20)
(0.0711712 -1.92949e-05 -1.31986e-20)
(0.0711258 -1.95569e-05 -1.93264e-22)
(0.0711306 -1.98359e-05 -3.30298e-22)
(0.0711772 -1.98434e-05 2.78977e-20)
(0.0711257 -1.8284e-05 -4.56595e-22)
(0.0710801 -1.85421e-05 -2.20185e-20)
(0.0710843 -1.88068e-05 -3.92119e-22)
(0.0711308 -1.88141e-05 1.85873e-20)
(0.0710801 -1.47027e-05 4.52541e-22)
(0.0710343 -1.49458e-05 -1.2575e-23)
(0.0710378 -1.51589e-05 -1.64874e-22)
(0.0710843 -1.51649e-05 -1.67678e-22)
(0.0710347 -1.2356e-05 8.45978e-22)
(0.0709887 -1.25895e-05 -2.05802e-20)
(0.0709916 -1.27689e-05 2.14124e-20)
(0.0710381 -1.27731e-05 1.33424e-22)
(0.0709893 -1.12188e-05 -2.41023e-22)
(0.0709431 -1.14471e-05 -3.09039e-20)
(0.0709453 -1.16099e-05 -3.1191e-20)
(0.0709473 -1.17778e-05 3.36816e-20)
(0.0708067 1.19262e-07 2.25761e-19)
(0.0709446 -1.12919e-05 6.73957e-22)
(0.0708983 -1.15197e-05 -3.49641e-20)
(0.0708999 -1.16828e-05 2.00509e-20)
(0.0709012 -1.18511e-05 5.30265e-20)
(0.0709483 -1.18626e-05 3.23843e-20)
(0.0708994 -1.26709e-05 1.64342e-21)
(0.0708529 -1.29043e-05 -6.04275e-24)
(0.0708538 -1.30873e-05 4.13586e-23)
(0.0708545 -1.3277e-05 8.98347e-24)
(0.0709025 -1.33543e-05 -2.96015e-20)
(0.0708542 -1.52555e-05 2.38375e-23)
(0.0708075 -1.54981e-05 3.10731e-20)
(0.0708078 -1.5718e-05 -2.96723e-22)
(0.0708542 -1.57242e-05 -5.30386e-20)
)
;

boundaryField
{
    inlet
    {
        type            calculated;
        value           uniform (0.0741049 0 0);
    }
    outlet2
    {
        type            calculated;
        value           uniform (0.0741049 0 0);
    }
    outlet1
    {
        type            calculated;
        value           nonuniform List<vector> 0();
    }
    wall
    {
        type            calculated;
        value           uniform (0.0741049 0 0);
    }
    symmetryBottom
    {
        type            symmetry;
    }
    symmetryZ0
    {
        type            symmetry;
    }
    symmetryZ05
    {
        type            symmetry;
    }
    procBoundary1to0
    {
        type            processor;
        value           uniform (0.0741049 0 0);
    }
}


// ************************************************************************* //
