/*--------------------------------*- C++ -*----------------------------------*\
| =========                 |                                                 |
| \\      /  F ield         | OpenFOAM: The Open Source CFD Toolbox           |
|  \\    /   O peration     | Version:  2412                                  |
|   \\  /    A nd           | Website:  www.openfoam.com                      |
|    \\/     M anipulation  |                                                 |
\*---------------------------------------------------------------------------*/
FoamFile
{
    version     2.0;
    format      ascii;
    arch        "LSB;label=32;scalar=64";
    class       volVectorField;
    location    "7e-07";
    object      U;
}
// * * * * * * * * * * * * * * * * * * * * * * * * * * * * * * * * * * * * * //

dimensions      [0 0 0 0 0 0 0];

internalField   nonuniform List<vector> 
84
(
(2636.39 -0.000232114 0)
(2634.52 -0.0027929 0)
(2634.61 -0.00268356 -9.93561e-16)
(2636.39 -0.681976 0)
(2634.52 -0.71029 0)
(2634.61 -0.709454 -8.69345e-16)
(2636.39 -0.681625 0)
(2634.52 -0.709953 0)
(2634.61 -0.709117 1.5524e-15)
(2636.39 -0.681625 0)
(2634.52 -0.709953 0)
(2634.61 -0.709117 -1.9871e-15)
(2636.39 -0.681625 0)
(2634.52 -0.709953 0)
(2634.61 -0.709117 -3.4774e-15)
(2636.39 -0.681625 0)
(2634.52 -0.709953 0)
(2634.61 -0.709117 1.92498e-15)
(2636.39 -0.681625 0)
(2634.52 -0.709953 0)
(2634.61 -0.709117 -2.42178e-15)
(2636.39 -0.681625 0)
(2634.52 -0.709953 0)
(2634.61 -0.709117 -2.85644e-15)
(2636.39 -0.681625 0)
(2634.52 -0.709953 0)
(2634.61 -0.709117 9.93535e-16)
(2636.39 -0.681625 0)
(2634.52 -0.709953 0)
(2634.61 -0.709117 -2.3597e-15)
(2636.39 -0.681625 0)
(2634.52 -0.709952 0)
(2634.61 -0.709115 -6.20966e-15)
(2636.39 -0.681716 0)
(2634.52 -0.707507 0)
(2634.61 -0.706779 0)
(2635.56 0.722024 8.86339e-18)
(2635.54 0.725293 7.23419e-16)
(2635.55 0.725195 7.3618e-17)
(2635.79 -0.714217 7.87352e-18)
(2635.77 -0.724371 8.15882e-16)
(2635.78 -0.724175 -1.50994e-18)
(2635.78 -0.71434 -1.33214e-17)
(2635.76 -0.724494 -2.88349e-16)
(2635.77 -0.724244 -1.59836e-15)
(2635.77 -0.714461 1.83328e-17)
(2635.75 -0.724616 -1.22493e-17)
(2635.75 -0.734904 1.10344e-19)
(2635.67 0.00397003 1.13496e-15)
(2635.76 -0.714571 -4.88798e-16)
(2635.74 -0.724728 -7.16189e-18)
(2635.74 -0.735019 -1.22392e-17)
(2635.75 -0.734819 1.03308e-15)
(2635.75 -0.677562 -1.69203e-17)
(2635.73 -0.68756 -8.16469e-16)
(2635.73 -0.697337 -1.45393e-17)
(2635.74 -0.697152 6.88749e-16)
(2635.73 -0.545192 1.67807e-17)
(2635.71 -0.554559 -4.66591e-19)
(2635.71 -0.562439 -6.11729e-18)
(2635.72 -0.562296 -6.21729e-18)
(2635.71 -0.458465 3.13897e-17)
(2635.69 -0.467426 -7.64108e-16)
(2635.69 -0.474069 7.94976e-16)
(2635.7 -0.473915 4.95037e-18)
(2635.7 -0.416532 -8.94875e-18)
(2635.68 -0.425281 -1.14814e-15)
(2635.68 -0.431317 -1.15877e-15)
(2635.68 -0.437542 1.25127e-15)
(2635.67 0.00443934 8.40361e-15)
(2635.7 -0.41951 2.50385e-17)
(2635.68 -0.428251 -1.29981e-15)
(2635.68 -0.434306 7.45385e-16)
(2635.68 -0.440551 1.97121e-15)
(2635.69 -0.440688 1.20306e-15)
(2635.69 -0.471043 6.10945e-17)
(2635.67 -0.480029 -2.24786e-19)
(2635.67 -0.486831 1.53849e-18)
(2635.67 -0.493882 3.34171e-19)
(2635.69 -0.496426 -1.10039e-15)
(2635.69 -0.567485 8.86726e-19)
(2635.67 -0.576886 1.15664e-15)
(2635.67 -0.585068 -1.10449e-17)
(2635.68 -0.584919 -1.97296e-15)
)
;

boundaryField
{
    inlet
    {
        type            calculated;
        value           uniform (0 0 0);
    }
    outlet2
    {
        type            calculated;
        value           uniform (0 0 0);
    }
    outlet1
    {
        type            calculated;
        value           nonuniform List<vector> 0();
    }
    wall
    {
        type            calculated;
        value           uniform (0 0 0);
    }
    symmetryBottom
    {
        type            symmetry;
    }
    symmetryZ0
    {
        type            symmetry;
    }
    symmetryZ05
    {
        type            symmetry;
    }
    procBoundary1to0
    {
        type            processor;
        value           uniform (0 0 0);
    }
}


// ************************************************************************* //
