/*--------------------------------*- C++ -*----------------------------------*\
| =========                 |                                                 |
| \\      /  F ield         | OpenFOAM: The Open Source CFD Toolbox           |
|  \\    /   O peration     | Version:  2412                                  |
|   \\  /    A nd           | Website:  www.openfoam.com                      |
|    \\/     M anipulation  |                                                 |
\*---------------------------------------------------------------------------*/
FoamFile
{
    version     2.0;
    format      ascii;
    arch        "LSB;label=32;scalar=64";
    class       volVectorField;
    location    "6e-06";
    object      rhoU_dof0;
}
// * * * * * * * * * * * * * * * * * * * * * * * * * * * * * * * * * * * * * //

dimensions      [0 0 0 0 0 0 0];

internalField   nonuniform List<vector> 
84
(
(0.0723203 0.000168796 1.7005e-19)
(0.0480722 0.000114606 -1.64352e-19)
(0.0504441 0.000121791 -2.8889e-19)
(0.0502943 0.000123204 1.81718e-19)
(0.0503046 0.000125039 -2.43317e-20)
(0.0503074 0.00012691 2.27308e-20)
(0.0503106 0.000128839 2.72829e-19)
(0.0506534 0.00012951 3.62742e-20)
(0.0763637 -0.000182626 1.6912e-19)
(0.0508262 -0.000125946 -1.65654e-19)
(0.0533677 -0.00013336 -3.74198e-19)
(0.0532547 -0.000135162 4.53795e-20)
(0.0533113 -0.000137367 -6.99032e-19)
(0.0533616 -0.000139629 1.64599e-19)
(0.0534138 -0.000141967 5.67573e-19)
(0.0537724 -0.000142659 1.15164e-19)
(0.0755965 -0.000164191 -6.90369e-19)
(0.0508645 -0.000141082 1.33694e-19)
(0.0530183 -0.00013071 2.14569e-19)
(0.0529443 -0.00013453 -2.50288e-20)
(0.0529928 -0.000136572 -9.74563e-21)
(0.053038 -0.000138815 2.73784e-19)
(0.0530848 -0.000141126 -2.37957e-19)
(0.0534418 -0.000141816 -2.61608e-19)
(0.0752885 -0.00017009 -6.6377e-19)
(0.0502946 -0.00012711 3.11221e-19)
(0.0527887 -0.000133954 -3.44909e-20)
(0.0526689 -0.00013578 -6.35361e-19)
(0.0527166 -0.000138007 6.30041e-19)
(0.0527578 -0.000140291 1.02796e-19)
(0.0531131 -0.000140979 -2.39543e-19)
(0.0751464 -0.000182788 -4.26559e-19)
(0.0499832 -0.000125558 -1.07856e-19)
(0.0524785 -0.000133279 1.21206e-20)
(0.0523537 -0.00013504 3.69043e-21)
(0.0523963 -0.000137245 -2.21636e-19)
(0.0524322 -0.000139505 1.85711e-19)
(0.0527859 -0.00014019 3.93814e-19)
(0.0747172 -0.000175658 -2.54707e-19)
(0.0496901 -0.000120438 3.35141e-19)
(0.052167 -0.000127926 -3.61904e-20)
(0.0520381 -0.000129644 3.99025e-19)
(0.0520755 -0.000131793 -3.69022e-19)
(0.0521061 -0.000133996 3.1008e-19)
(0.0524582 -0.000134655 -6.72088e-19)
(0.0742843 -0.000140575 -9.29785e-23)
(0.0493975 -9.65579e-05 3.09179e-19)
(0.0518541 -0.000102402 -3.48257e-20)
(0.0517213 -0.000103782 1.10269e-21)
(0.0517535 -0.000105488 3.29659e-19)
(0.0517787 -0.000107239 4.06526e-20)
(0.0521291 -0.000107769 3.26672e-19)
(0.0736826 -0.000104374 6.18481e-21)
(0.0492931 -9.43245e-05 4.60181e-21)
(0.0515265 -8.53284e-05 -1.80394e-21)
(0.0514135 -8.81225e-05 -4.62471e-21)
(0.0514391 -8.94714e-05 -9.4762e-22)
(0.0514593 -9.09731e-05 2.1548e-21)
(0.0518082 -9.14219e-05 -2.65874e-19)
(0.0732859 -9.92674e-05 9.08996e-19)
(0.0488287 -7.38247e-05 -8.67868e-20)
(0.051239 -7.78987e-05 -6.86362e-19)
(0.0510986 -7.89446e-05 -2.12033e-19)
(0.0511207 -8.02334e-05 3.78308e-19)
(0.0514676 -8.06347e-05 -4.47656e-20)
(0.0730643 -0.000104251 -3.22697e-19)
(0.0485638 -7.11875e-05 3.1077e-20)
(0.0509699 -7.56068e-05 -3.19117e-19)
(0.050826 -7.65463e-05 3.53285e-19)
(0.0508442 -7.77424e-05 5.89883e-19)
(0.0511896 -7.81379e-05 -6.48988e-20)
(0.0725421 -0.000109715 -4.36207e-19)
(0.0482767 -8.15722e-05 4.25866e-20)
(0.0506517 -8.548e-05 -1.88339e-21)
(0.0505043 -8.66362e-05 6.19183e-19)
(0.0505171 -8.80041e-05 6.37943e-19)
(0.0508609 -8.84497e-05 2.16049e-20)
(0.071745 -1.60449e-05 -3.22314e-20)
(0.0480877 -0.000110435 2.20318e-21)
(0.0503433 -9.91402e-05 -1.06298e-22)
(0.0502027 -0.000101739 3.72057e-19)
(0.0502101 -0.000103233 -4.10733e-20)
(0.0502106 -0.000104844 2.78088e-21)
(0.0505531 -0.00010538 -3.12998e-19)
)
;

boundaryField
{
    inlet
    {
        type            calculated;
        value           nonuniform List<vector> 0();
    }
    outlet2
    {
        type            calculated;
        value           uniform (0.0741049 0 0);
    }
    outlet1
    {
        type            calculated;
        value           uniform (0.0741049 0 0);
    }
    wall
    {
        type            calculated;
        value           uniform (0.0741049 0 0);
    }
    symmetryBottom
    {
        type            symmetry;
    }
    symmetryZ0
    {
        type            symmetry;
    }
    symmetryZ05
    {
        type            symmetry;
    }
    procBoundary0to1
    {
        type            processor;
        value           uniform (0.0741049 0 0);
    }
}


// ************************************************************************* //
