/*--------------------------------*- C++ -*----------------------------------*\
| =========                 |                                                 |
| \\      /  F ield         | OpenFOAM: The Open Source CFD Toolbox           |
|  \\    /   O peration     | Version:  2412                                  |
|   \\  /    A nd           | Website:  www.openfoam.com                      |
|    \\/     M anipulation  |                                                 |
\*---------------------------------------------------------------------------*/
FoamFile
{
    version     2.0;
    format      ascii;
    arch        "LSB;label=32;scalar=64";
    class       volVectorField;
    location    "6e-06";
    object      U;
}
// * * * * * * * * * * * * * * * * * * * * * * * * * * * * * * * * * * * * * //

dimensions      [0 0 0 0 0 0 0];

internalField   nonuniform List<vector> 
84
(
(2634.44 6.14879 6.19446e-15)
(2627.5 6.26409 -8.98306e-15)
(2629.18 6.34783 -1.50571e-14)
(2629.01 6.44017 9.49886e-15)
(2629 6.53473 -1.27162e-15)
(2628.98 6.63213 1.18787e-15)
(2628.96 6.73246 1.42566e-14)
(2629.08 6.72202 1.88275e-15)
(2636.44 -6.3051 5.83882e-15)
(2629.62 -6.51616 -8.57051e-15)
(2631.3 -6.57535 -1.84499e-14)
(2631.17 -6.678 2.24208e-15)
(2631.19 -6.77977 -3.45009e-14)
(2631.21 -6.88496 8.11624e-15)
(2631.22 -6.99344 2.79593e-14)
(2631.34 -6.98101 5.63551e-15)
(2636.23 -5.72573 -2.40748e-14)
(2629.76 -7.29411 6.91214e-15)
(2631.18 -6.48684 1.06486e-14)
(2631.08 -6.68549 -1.24381e-15)
(2631.1 -6.7808 -4.83871e-16)
(2631.11 -6.88634 1.35819e-14)
(2631.13 -6.99486 -1.17942e-14)
(2631.24 -6.98242 -1.28805e-14)
(2636.17 -5.95558 -2.32414e-14)
(2629.46 -6.64544 1.6271e-14)
(2631.13 -6.67663 -1.71912e-15)
(2631 -6.78267 -3.17385e-14)
(2631.02 -6.88773 3.14445e-14)
(2631.03 -6.99632 5.12645e-15)
(2631.14 -6.98386 -1.18666e-14)
(2636.18 -6.41231 -1.4964e-14)
(2629.35 -6.60496 -5.67374e-15)
(2631.04 -6.682 6.0767e-16)
(2630.9 -6.7861 1.85453e-16)
(2630.92 -6.89135 -1.11288e-14)
(2630.93 -7.00004 9.31857e-15)
(2631.05 -6.98757 1.96292e-14)
(2636.07 -6.19733 -8.98624e-15)
(2629.23 -6.37265 1.77331e-14)
(2630.91 -6.45165 -1.82517e-15)
(2630.77 -6.55409 2.01726e-14)
(2630.79 -6.65799 -1.86425e-14)
(2630.8 -6.76535 1.56557e-14)
(2630.92 -6.75331 -3.3707e-14)
(2635.88 -4.98812 -3.29922e-18)
(2628.98 -5.1389 1.64548e-14)
(2630.68 -5.19508 -1.76679e-15)
(2630.53 -5.27834 5.60827e-17)
(2630.55 -5.36181 1.67561e-14)
(2630.55 -5.44813 2.0653e-15)
(2630.67 -5.4385 1.64853e-14)
(2635.71 -3.73356 2.21237e-16)
(2628.91 -5.03055 2.45425e-16)
(2630.49 -4.35612 -9.20933e-17)
(2630.36 -4.50843 -2.36604e-16)
(2630.37 -4.57518 -4.84572e-17)
(2630.37 -4.65014 1.10144e-16)
(2630.49 -4.64183 -1.34994e-14)
(2635.53 -3.56989 3.26896e-14)
(2628.55 -3.97413 -4.67191e-15)
(2630.26 -3.99878 -3.52331e-14)
(2630.11 -4.06337 -1.09136e-14)
(2630.11 -4.12793 1.94636e-14)
(2630.23 -4.12081 -2.28773e-15)
(2635.64 -3.76062 -1.16406e-14)
(2628.89 -3.85357 1.68228e-15)
(2630.55 -3.90206 -1.64696e-14)
(2630.41 -3.96151 1.82836e-14)
(2630.42 -4.02199 3.05176e-14)
(2630.54 -4.01536 -3.33503e-15)
(2635.59 -3.98616 -1.58482e-14)
(2628.77 -4.44177 2.31892e-15)
(2630.44 -4.43913 -9.7808e-17)
(2630.29 -4.51205 3.22473e-14)
(2630.3 -4.58215 3.32161e-14)
(2630.42 -4.57443 1.11736e-15)
(2635.48 -0.589392 -1.18399e-15)
(2628.72 -6.03693 1.20437e-16)
(2630.37 -5.17994 -5.55393e-18)
(2630.22 -5.3303 1.94928e-14)
(2630.23 -5.40784 -2.15161e-15)
(2630.23 -5.49213 1.45673e-16)
(2630.35 -5.48305 -1.62858e-14)
)
;

boundaryField
{
    inlet
    {
        type            calculated;
        value           nonuniform List<vector> 0();
    }
    outlet2
    {
        type            calculated;
        value           uniform (0 0 0);
    }
    outlet1
    {
        type            calculated;
        value           uniform (0 0 0);
    }
    wall
    {
        type            calculated;
        value           uniform (0 0 0);
    }
    symmetryBottom
    {
        type            symmetry;
    }
    symmetryZ0
    {
        type            symmetry;
    }
    symmetryZ05
    {
        type            symmetry;
    }
    procBoundary0to1
    {
        type            processor;
        value           uniform (0 0 0);
    }
}


// ************************************************************************* //
