/*--------------------------------*- C++ -*----------------------------------*\
| =========                 |                                                 |
| \\      /  F ield         | OpenFOAM: The Open Source CFD Toolbox           |
|  \\    /   O peration     | Version:  2412                                  |
|   \\  /    A nd           | Website:  www.openfoam.com                      |
|    \\/     M anipulation  |                                                 |
\*---------------------------------------------------------------------------*/
FoamFile
{
    version     2.0;
    format      ascii;
    arch        "LSB;label=32;scalar=64";
    class       volVectorField;
    location    "3.1e-06";
    object      rhoU_dof0;
}
// * * * * * * * * * * * * * * * * * * * * * * * * * * * * * * * * * * * * * //

dimensions      [0 0 0 0 0 0 0];

internalField   nonuniform List<vector> 
84
(
(0.0741066 -1.66732e-07 0)
(0.0416181 -3.80923e-07 0)
(0.0453779 -3.25867e-07 -9.21173e-20)
(0.0741135 -7.69463e-05 0)
(0.041629 -5.05056e-05 0)
(0.0453877 -5.38582e-05 -8.74322e-20)
(0.0741118 -7.67735e-05 0)
(0.0416278 -5.03872e-05 0)
(0.0453864 -5.37328e-05 1.20219e-19)
(0.0741118 -7.67735e-05 0)
(0.0416278 -5.03872e-05 0)
(0.0453864 -5.37328e-05 -1.56158e-19)
(0.0741118 -7.67735e-05 0)
(0.0416278 -5.03872e-05 0)
(0.0453864 -5.37328e-05 -2.63869e-19)
(0.0741118 -7.67735e-05 0)
(0.0416278 -5.03872e-05 0)
(0.0453864 -5.37328e-05 1.51445e-19)
(0.0741118 -7.67735e-05 0)
(0.0416278 -5.03872e-05 0)
(0.0453864 -5.37328e-05 -1.9519e-19)
(0.0741118 -7.67735e-05 0)
(0.0416278 -5.03872e-05 0)
(0.0453864 -5.37328e-05 -2.2796e-19)
(0.0741118 -7.67735e-05 0)
(0.0416278 -5.03872e-05 0)
(0.0453864 -5.37328e-05 8.74265e-20)
(0.0741118 -7.67735e-05 0)
(0.0416278 -5.03872e-05 0)
(0.0453864 -5.37328e-05 -1.95206e-19)
(0.0741118 -7.67735e-05 0)
(0.0416278 -5.03861e-05 0)
(0.0453864 -5.3732e-05 -4.74669e-19)
(0.0741119 -7.67841e-05 0)
(0.0416251 -5.01286e-05 0)
(0.0453844 -5.35364e-05 0)
(0.0614567 7.58078e-05 4.61006e-21)
(0.0605966 7.27022e-05 8.0871e-20)
(0.0608059 7.30017e-05 8.09813e-21)
(0.0632336 -7.58916e-05 4.43694e-21)
(0.0623008 -7.59093e-05 8.61553e-20)
(0.0625171 -7.61011e-05 -1.16565e-21)
(0.06305 -7.56912e-05 -6.78412e-21)
(0.0621246 -7.57092e-05 -3.9959e-20)
(0.0623392 -7.58613e-05 -1.76483e-19)
(0.0628667 -7.5487e-05 8.71845e-21)
(0.0619488 -7.55098e-05 -1.60572e-21)
(0.0620003 -7.66402e-05 6.54685e-23)
(0.0605248 2.73038e-06 1.25879e-19)
(0.0626838 -7.52935e-05 -2.93505e-20)
(0.0617733 -7.53206e-05 1.74411e-22)
(0.061822 -7.64452e-05 -1.31773e-21)
(0.062007 -7.66068e-05 1.2976e-19)
(0.0625007 -7.1587e-05 -8.52662e-21)
(0.0615976 -7.1772e-05 -8.59954e-20)
(0.0616434 -7.28455e-05 1.79303e-21)
(0.0618281 -7.30006e-05 8.53019e-20)
(0.062317 -5.69477e-05 1.00811e-20)
(0.0614213 -5.77068e-05 -5.96496e-22)
(0.0614642 -5.85463e-05 -3.90911e-22)
(0.0616485 -5.86721e-05 -6.96114e-22)
(0.0621357 -4.76235e-05 1.3106e-20)
(0.0612474 -4.87458e-05 -8.38532e-20)
(0.0612874 -4.9441e-05 9.19022e-20)
(0.0614708 -4.9519e-05 8.7537e-22)
(0.0619503 -4.24931e-05 -4.54381e-21)
(0.0610691 -4.38064e-05 -1.25369e-19)
(0.0611063 -4.4412e-05 -1.21247e-19)
(0.0611133 -4.50596e-05 1.40402e-19)
(0.0605667 2.90475e-06 8.07165e-19)
(0.0617796 -4.2128e-05 1.09854e-20)
(0.0609063 -4.3447e-05 -1.26154e-19)
(0.0609408 -4.40343e-05 8.73491e-20)
(0.0609454 -4.4665e-05 2.04544e-19)
(0.0611298 -4.49018e-05 1.20213e-19)
(0.0615971 -4.77563e-05 2.67066e-20)
(0.060731 -4.88411e-05 -8.25757e-22)
(0.0607626 -4.95187e-05 1.80049e-22)
(0.060765 -5.0259e-05 -9.83202e-23)
(0.0609738 -5.22204e-05 -1.2917e-19)
(0.0614193 -5.77884e-05 9.30692e-23)
(0.0605602 -5.84432e-05 1.20738e-19)
(0.0605892 -5.9273e-05 -6.0095e-21)
(0.0607713 -5.93875e-05 -2.13622e-19)
)
;

boundaryField
{
    inlet
    {
        type            calculated;
        value           uniform (0.0741049 0 0);
    }
    outlet2
    {
        type            calculated;
        value           uniform (0.0741049 0 0);
    }
    outlet1
    {
        type            calculated;
        value           nonuniform List<vector> 0();
    }
    wall
    {
        type            calculated;
        value           uniform (0.0741049 0 0);
    }
    symmetryBottom
    {
        type            symmetry;
    }
    symmetryZ0
    {
        type            symmetry;
    }
    symmetryZ05
    {
        type            symmetry;
    }
    procBoundary1to0
    {
        type            processor;
        value           uniform (0.0741049 0 0);
    }
}


// ************************************************************************* //
