/*--------------------------------*- C++ -*----------------------------------*\
| =========                 |                                                 |
| \\      /  F ield         | OpenFOAM: The Open Source CFD Toolbox           |
|  \\    /   O peration     | Version:  2412                                  |
|   \\  /    A nd           | Website:  www.openfoam.com                      |
|    \\/     M anipulation  |                                                 |
\*---------------------------------------------------------------------------*/
FoamFile
{
    version     2.0;
    format      ascii;
    arch        "LSB;label=32;scalar=64";
    class       volVectorField;
    location    "3.1e-06";
    object      U;
}
// * * * * * * * * * * * * * * * * * * * * * * * * * * * * * * * * * * * * * //

dimensions      [0 0 0 0 0 0 0];

internalField   nonuniform List<vector> 
84
(
(2636.39 -0.00593161 0)
(2625.56 -0.0240313 0)
(2628.82 -0.018878 -5.33652e-15)
(2636.39 -2.73716 0)
(2625.57 -3.18542 0)
(2628.82 -3.11943 -5.06401e-15)
(2636.39 -2.73107 0)
(2625.57 -3.17805 0)
(2628.82 -3.11226 6.96318e-15)
(2636.39 -2.73107 0)
(2625.57 -3.17805 0)
(2628.82 -3.11226 -9.04484e-15)
(2636.39 -2.73107 0)
(2625.57 -3.17805 0)
(2628.82 -3.11226 -1.52835e-14)
(2636.39 -2.73107 0)
(2625.57 -3.17805 0)
(2628.82 -3.11226 8.77183e-15)
(2636.39 -2.73107 0)
(2625.57 -3.17805 0)
(2628.82 -3.11226 -1.13056e-14)
(2636.39 -2.73107 0)
(2625.57 -3.17805 0)
(2628.82 -3.11226 -1.32037e-14)
(2636.39 -2.73107 0)
(2625.57 -3.17805 0)
(2628.82 -3.11226 5.06382e-15)
(2636.39 -2.73107 0)
(2625.57 -3.17805 0)
(2628.82 -3.11226 -1.13065e-14)
(2636.39 -2.73107 0)
(2625.57 -3.17798 0)
(2628.82 -3.11221 -2.74933e-14)
(2636.39 -2.73145 0)
(2625.57 -3.16193 0)
(2628.82 -3.10101 0)
(2633.03 3.24788 1.97511e-16)
(2632.61 3.15853 3.51343e-15)
(2632.68 3.16072 3.50621e-16)
(2634.1 -3.16138 1.84828e-16)
(2633.64 -3.20891 3.64204e-15)
(2633.71 -3.20598 -4.91062e-17)
(2634.05 -3.16217 -2.83421e-16)
(2633.6 -3.20948 -1.69395e-15)
(2633.67 -3.20494 -7.45595e-15)
(2634 -3.16277 3.65287e-16)
(2633.55 -3.21006 -6.82619e-17)
(2633.58 -3.25544 2.7809e-18)
(2633.18 0.118787 5.47647e-15)
(2633.95 -3.16381 -1.2333e-15)
(2633.51 -3.21105 7.43544e-18)
(2633.53 -3.25646 -5.61335e-17)
(2633.58 -3.25367 5.5112e-15)
(2633.89 -3.0168 -3.59327e-16)
(2633.44 -3.06842 -3.67651e-15)
(2633.47 -3.11204 7.65999e-17)
(2633.52 -3.1094 3.63337e-15)
(2633.79 -2.40686 4.26073e-16)
(2633.34 -2.47409 -2.55738e-17)
(2633.37 -2.50835 -1.67482e-17)
(2633.42 -2.50628 -2.97356e-17)
(2633.72 -2.0186 5.55521e-16)
(2633.27 -2.09578 -3.60519e-15)
(2633.29 -2.1243 3.9487e-15)
(2633.34 -2.12134 3.74999e-17)
(2633.66 -1.80648 -1.93169e-16)
(2633.19 -1.88885 -5.40569e-15)
(2633.22 -1.91382 -5.22483e-15)
(2633.22 -1.9415 6.04958e-15)
(2633.17 0.126286 3.5092e-14)
(2633.67 -1.79592 4.68311e-16)
(2633.25 -1.87841 -5.4542e-15)
(2633.27 -1.90274 3.77438e-15)
(2633.27 -1.92984 8.83775e-15)
(2633.32 -1.93426 5.17847e-15)
(2633.64 -2.04187 1.14186e-15)
(2633.21 -2.11768 -3.58037e-17)
(2633.23 -2.14596 7.80267e-18)
(2633.23 -2.17796 -4.26068e-18)
(2633.29 -2.25525 -5.5785e-15)
(2633.61 -2.47793 3.99074e-18)
(2633.18 -2.54113 5.24972e-15)
(2633.21 -2.57601 -2.61173e-16)
(2633.26 -2.57329 -9.25635e-15)
)
;

boundaryField
{
    inlet
    {
        type            calculated;
        value           uniform (0 0 0);
    }
    outlet2
    {
        type            calculated;
        value           uniform (0 0 0);
    }
    outlet1
    {
        type            calculated;
        value           nonuniform List<vector> 0();
    }
    wall
    {
        type            calculated;
        value           uniform (0 0 0);
    }
    symmetryBottom
    {
        type            symmetry;
    }
    symmetryZ0
    {
        type            symmetry;
    }
    symmetryZ05
    {
        type            symmetry;
    }
    procBoundary1to0
    {
        type            processor;
        value           uniform (0 0 0);
    }
}


// ************************************************************************* //
