/*--------------------------------*- C++ -*----------------------------------*\
| =========                 |                                                 |
| \\      /  F ield         | OpenFOAM: The Open Source CFD Toolbox           |
|  \\    /   O peration     | Version:  2412                                  |
|   \\  /    A nd           | Website:  www.openfoam.com                      |
|    \\/     M anipulation  |                                                 |
\*---------------------------------------------------------------------------*/
FoamFile
{
    version     2.0;
    format      ascii;
    arch        "LSB;label=32;scalar=64";
    class       volScalarField;
    location    "1.6e-06";
    object      E_dof0;
}
// * * * * * * * * * * * * * * * * * * * * * * * * * * * * * * * * * * * * * //

dimensions      [0 0 0 0 0 0 0];

internalField   nonuniform List<scalar> 
84
(
99.4312
75.4522
76.8773
99.4338
75.459
76.8836
99.4331
75.4584
76.883
99.4331
75.4584
76.883
99.4331
75.4584
76.883
99.4331
75.4584
76.883
99.4331
75.4584
76.883
99.4331
75.4584
76.883
99.4331
75.4584
76.883
99.4331
75.4584
76.883
99.4331
75.4584
76.883
99.4332
75.4565
76.8813
89.908
89.5702
89.7107
91.2335
90.8794
91.0219
91.0981
90.7457
90.8876
90.9629
90.6121
90.6332
89.5327
90.8278
90.4786
90.4977
90.6357
90.6937
90.3462
90.3633
90.5012
90.5626
90.2166
90.2318
90.3695
90.4329
90.0883
90.1017
90.2391
90.3167
89.9733
89.9849
89.9912
89.5469
90.1428
89.8022
89.8114
89.8151
89.9535
90.0183
89.6791
89.6864
89.6884
89.8354
89.8872
89.5494
89.5549
89.6918
)
;

boundaryField
{
    inlet
    {
        type            calculated;
        value           uniform 99.4306;
    }
    outlet2
    {
        type            calculated;
        value           uniform 99.4306;
    }
    outlet1
    {
        type            calculated;
        value           nonuniform List<scalar> 0();
    }
    wall
    {
        type            calculated;
        value           uniform 99.4306;
    }
    symmetryBottom
    {
        type            symmetry;
    }
    symmetryZ0
    {
        type            symmetry;
    }
    symmetryZ05
    {
        type            symmetry;
    }
    procBoundary1to0
    {
        type            processor;
        value           uniform 99.4306;
    }
}


// ************************************************************************* //
