/*--------------------------------*- C++ -*----------------------------------*\
| =========                 |                                                 |
| \\      /  F ield         | OpenFOAM: The Open Source CFD Toolbox           |
|  \\    /   O peration     | Version:  2412                                  |
|   \\  /    A nd           | Website:  www.openfoam.com                      |
|    \\/     M anipulation  |                                                 |
\*---------------------------------------------------------------------------*/
FoamFile
{
    version     2.0;
    format      ascii;
    arch        "LSB;label=32;scalar=64";
    class       volScalarField;
    location    "1.6e-06";
    object      rho;
}
// * * * * * * * * * * * * * * * * * * * * * * * * * * * * * * * * * * * * * //

dimensions      [0 0 0 0 0 0 0];

internalField   nonuniform List<scalar> 
84
(
2.81087e-05
2.14042e-05
2.17982e-05
2.81094e-05
2.14062e-05
2.18e-05
2.81092e-05
2.1406e-05
2.17998e-05
2.81092e-05
2.1406e-05
2.17998e-05
2.81092e-05
2.1406e-05
2.17998e-05
2.81092e-05
2.1406e-05
2.17998e-05
2.81092e-05
2.1406e-05
2.17998e-05
2.81092e-05
2.1406e-05
2.17998e-05
2.81092e-05
2.1406e-05
2.17998e-05
2.81092e-05
2.1406e-05
2.17998e-05
2.81092e-05
2.1406e-05
2.17998e-05
2.81092e-05
2.14054e-05
2.17993e-05
2.5449e-05
2.53556e-05
2.53948e-05
2.5816e-05
2.57181e-05
2.57579e-05
2.57781e-05
2.56807e-05
2.57204e-05
2.57403e-05
2.56434e-05
2.56492e-05
2.53415e-05
2.57026e-05
2.5606e-05
2.56113e-05
2.56499e-05
2.56648e-05
2.55687e-05
2.55735e-05
2.5612e-05
2.56271e-05
2.55315e-05
2.55357e-05
2.55742e-05
2.55896e-05
2.54945e-05
2.54981e-05
2.55365e-05
2.55517e-05
2.5457e-05
2.54601e-05
2.54617e-05
2.53458e-05
2.55151e-05
2.54208e-05
2.54234e-05
2.54245e-05
2.54632e-05
2.54773e-05
2.53835e-05
2.53855e-05
2.53861e-05
2.54272e-05
2.544e-05
2.53466e-05
2.53481e-05
2.53863e-05
)
;

boundaryField
{
    inlet
    {
        type            calculated;
        value           uniform 0;
    }
    outlet2
    {
        type            calculated;
        value           uniform 0;
    }
    outlet1
    {
        type            calculated;
        value           nonuniform List<scalar> 0();
    }
    wall
    {
        type            calculated;
        value           uniform 0;
    }
    symmetryBottom
    {
        type            symmetry;
    }
    symmetryZ0
    {
        type            symmetry;
    }
    symmetryZ05
    {
        type            symmetry;
    }
    procBoundary1to0
    {
        type            processor;
        value           uniform 0;
    }
}


// ************************************************************************* //
