/*--------------------------------*- C++ -*----------------------------------*\
| =========                 |                                                 |
| \\      /  F ield         | OpenFOAM: The Open Source CFD Toolbox           |
|  \\    /   O peration     | Version:  2412                                  |
|   \\  /    A nd           | Website:  www.openfoam.com                      |
|    \\/     M anipulation  |                                                 |
\*---------------------------------------------------------------------------*/
FoamFile
{
    version     2.0;
    format      ascii;
    arch        "LSB;label=32;scalar=64";
    class       volVectorField;
    location    "1.6e-06";
    object      U;
}
// * * * * * * * * * * * * * * * * * * * * * * * * * * * * * * * * * * * * * //

dimensions      [0 0 0 0 0 0 0];

internalField   nonuniform List<vector> 
84
(
(2636.39 -0.00154919 0)
(2631.73 -0.00868223 0)
(2632.36 -0.00777862 -2.29197e-15)
(2636.39 -1.50172 0)
(2631.73 -1.6261 0)
(2632.36 -1.61775 -2.29177e-15)
(2636.39 -1.49997 0)
(2631.73 -1.6242 0)
(2632.36 -1.61585 3.65254e-15)
(2636.39 -1.49997 0)
(2631.73 -1.6242 0)
(2632.36 -1.61585 -4.79872e-15)
(2636.39 -1.49997 0)
(2631.73 -1.6242 0)
(2632.36 -1.61585 -7.94977e-15)
(2636.39 -1.49997 0)
(2631.73 -1.6242 0)
(2632.36 -1.61585 4.72683e-15)
(2636.39 -1.49997 0)
(2631.73 -1.6242 0)
(2632.36 -1.61585 -5.58652e-15)
(2636.39 -1.49997 0)
(2631.73 -1.6242 0)
(2632.36 -1.61585 -6.66065e-15)
(2636.39 -1.49997 0)
(2631.73 -1.6242 0)
(2632.36 -1.61585 2.36336e-15)
(2636.39 -1.49997 0)
(2631.73 -1.6242 0)
(2632.36 -1.61585 -5.58667e-15)
(2636.39 -1.49997 0)
(2631.73 -1.62418 0)
(2632.36 -1.61584 -1.41092e-14)
(2636.39 -1.50018 0)
(2631.73 -1.61751 0)
(2632.36 -1.61005 0)
(2634.56 1.66192 5.08494e-17)
(2634.45 1.64771 1.76179e-15)
(2634.47 1.64765 1.7292e-16)
(2635.1 -1.6323 4.6636e-17)
(2634.98 -1.65603 1.84042e-15)
(2635.01 -1.6552 -1.11272e-17)
(2635.08 -1.63262 -7.84604e-17)
(2634.96 -1.65632 -8.48709e-16)
(2634.98 -1.65512 -3.62279e-15)
(2635.05 -1.63291 1.02941e-16)
(2634.93 -1.65662 -2.97584e-17)
(2634.94 -1.68011 6.45032e-19)
(2634.74 0.0281129 2.61487e-15)
(2635.03 -1.63327 -8.52151e-16)
(2634.91 -1.65697 -6.18792e-18)
(2634.91 -1.68048 -2.82803e-17)
(2634.94 -1.67966 2.54443e-15)
(2635 -1.5517 -1.00361e-16)
(2634.88 -1.57617 -1.84848e-15)
(2634.88 -1.5986 -7.11579e-18)
(2634.91 -1.59783 1.76488e-15)
(2634.95 -1.24419 1.12709e-16)
(2634.83 -1.27103 -4.33479e-18)
(2634.83 -1.28901 -1.21836e-17)
(2634.86 -1.2884 -1.46304e-17)
(2634.91 -1.04478 1.58299e-16)
(2634.79 -1.07319 -1.74598e-15)
(2634.8 -1.08832 1.93764e-15)
(2634.82 -1.08754 1.41141e-17)
(2634.89 -0.943857 -5.13811e-17)
(2634.76 -0.972974 -2.74613e-15)
(2634.77 -0.986577 -2.72733e-15)
(2634.77 -1.00082 2.91556e-15)
(2634.74 0.0302856 1.90185e-14)
(2634.88 -0.946178 1.3297e-16)
(2634.77 -0.97519 -2.76167e-15)
(2634.77 -0.988703 1.85558e-15)
(2634.77 -1.00287 4.54917e-15)
(2634.8 -1.00384 2.96798e-15)
(2634.87 -1.06741 3.24973e-16)
(2634.76 -1.09544 -4.37979e-18)
(2634.76 -1.11075 3.60099e-18)
(2634.76 -1.127 -2.50483e-19)
(2634.78 -1.14527 -2.69875e-15)
(2634.86 -1.28976 2.04078e-18)
(2634.74 -1.31573 2.66798e-15)
(2634.74 -1.33424 -6.5434e-17)
(2634.77 -1.3335 -4.59742e-15)
)
;

boundaryField
{
    inlet
    {
        type            calculated;
        value           uniform (0 0 0);
    }
    outlet2
    {
        type            calculated;
        value           uniform (0 0 0);
    }
    outlet1
    {
        type            calculated;
        value           nonuniform List<vector> 0();
    }
    wall
    {
        type            calculated;
        value           uniform (0 0 0);
    }
    symmetryBottom
    {
        type            symmetry;
    }
    symmetryZ0
    {
        type            symmetry;
    }
    symmetryZ05
    {
        type            symmetry;
    }
    procBoundary1to0
    {
        type            processor;
        value           uniform (0 0 0);
    }
}


// ************************************************************************* //
