/*--------------------------------*- C++ -*----------------------------------*\
| =========                 |                                                 |
| \\      /  F ield         | OpenFOAM: The Open Source CFD Toolbox           |
|  \\    /   O peration     | Version:  2412                                  |
|   \\  /    A nd           | Website:  www.openfoam.com                      |
|    \\/     M anipulation  |                                                 |
\*---------------------------------------------------------------------------*/
FoamFile
{
    version     2.0;
    format      ascii;
    arch        "LSB;label=32;scalar=64";
    class       volScalarField;
    location    "1e-05";
    object      rho;
}
// * * * * * * * * * * * * * * * * * * * * * * * * * * * * * * * * * * * * * //

dimensions      [0 0 0 0 0 0 0];

internalField   nonuniform List<scalar> 
84
(
2.89158e-05
1.39095e-05
1.50984e-05
1.50404e-05
1.50481e-05
1.50543e-05
1.50437e-05
1.52439e-05
3.11011e-05
1.49859e-05
1.62802e-05
1.62362e-05
1.62631e-05
1.62889e-05
1.62995e-05
1.65119e-05
3.06443e-05
1.50334e-05
1.61305e-05
1.61033e-05
1.61272e-05
1.61512e-05
1.61597e-05
1.63706e-05
3.02743e-05
1.47662e-05
1.60114e-05
1.59659e-05
1.59898e-05
1.59953e-05
1.62047e-05
3.03203e-05
1.45986e-05
1.58572e-05
1.58083e-05
1.58296e-05
1.58323e-05
1.60401e-05
3.00406e-05
1.44582e-05
1.57031e-05
1.56523e-05
1.5671e-05
1.56709e-05
1.58772e-05
2.97583e-05
1.43201e-05
1.55505e-05
1.54979e-05
1.5514e-05
1.55112e-05
1.57159e-05
2.93854e-05
1.42582e-05
1.53916e-05
1.53454e-05
1.53585e-05
1.5353e-05
1.55563e-05
2.90701e-05
1.40638e-05
1.52566e-05
1.52021e-05
1.51966e-05
1.53982e-05
2.89413e-05
1.39152e-05
1.51067e-05
1.50497e-05
1.50416e-05
1.52418e-05
2.86469e-05
1.37815e-05
1.49575e-05
1.48989e-05
1.48883e-05
1.50869e-05
2.80964e-05
1.36886e-05
1.4806e-05
1.47483e-05
1.47521e-05
1.47365e-05
1.49337e-05
)
;

boundaryField
{
    inlet
    {
        type            calculated;
        value           nonuniform List<scalar> 0();
    }
    outlet2
    {
        type            calculated;
        value           uniform 0;
    }
    outlet1
    {
        type            calculated;
        value           uniform 0;
    }
    wall
    {
        type            calculated;
        value           uniform 0;
    }
    symmetryBottom
    {
        type            symmetry;
    }
    symmetryZ0
    {
        type            symmetry;
    }
    symmetryZ05
    {
        type            symmetry;
    }
    procBoundary0to1
    {
        type            processor;
        value           uniform 0;
    }
}


// ************************************************************************* //
