/*--------------------------------*- C++ -*----------------------------------*\
| =========                 |                                                 |
| \\      /  F ield         | OpenFOAM: The Open Source CFD Toolbox           |
|  \\    /   O peration     | Version:  2412                                  |
|   \\  /    A nd           | Website:  www.openfoam.com                      |
|    \\/     M anipulation  |                                                 |
\*---------------------------------------------------------------------------*/
FoamFile
{
    version     2.0;
    format      ascii;
    arch        "LSB;label=32;scalar=64";
    class       volVectorField;
    location    "1e-05";
    object      rhoU;
}
// * * * * * * * * * * * * * * * * * * * * * * * * * * * * * * * * * * * * * //

dimensions      [0 0 0 0 0 0 0];

internalField   nonuniform List<vector> 
84
(
(0.0762335 -5.96844e-06 3.50531e-19)
(0.0364831 -3.36712e-06 -1.84384e-19)
(0.0396502 -3.64899e-06 -5.17498e-19)
(0.0394945 -3.75084e-06 2.6106e-19)
(0.0395149 -3.86559e-06 -2.9416e-20)
(0.039531 -3.98501e-06 -2.06066e-20)
(0.0395026 -4.12068e-06 4.64983e-19)
(0.0400323 -4.13976e-06 3.97336e-20)
(0.0820429 -0.000321009 3.4546e-19)
(0.0393323 -0.000159636 -1.76527e-19)
(0.0427816 -0.000174973 -6.47652e-19)
(0.0426626 -0.000177153 1.57492e-19)
(0.042734 -0.000180103 -1.13405e-18)
(0.0428022 -0.000183118 1.42849e-19)
(0.0428298 -0.000186376 9.0672e-19)
(0.0433921 -0.000188141 1.59492e-19)
(0.0808285 -0.00029573 -1.55535e-18)
(0.0394621 -0.000183392 1.79775e-19)
(0.0423853 -0.000174836 3.1168e-19)
(0.0423115 -0.000179408 -2.50666e-20)
(0.042375 -0.000182292 -6.82465e-20)
(0.0424382 -0.000185382 4.96588e-19)
(0.0424604 -0.00018872 -3.34249e-19)
(0.0430189 -0.000190501 -4.03592e-19)
(0.0798452 -0.000283595 -1.54076e-18)
(0.0387533 -0.0001657 5.34565e-19)
(0.042071 -0.000178134 3.98025e-20)
(0.0419483 -0.00018056 -1.06815e-18)
(0.0420116 -0.000183612 9.69558e-19)
(0.0420259 -0.000186888 1.62071e-19)
(0.0425803 -0.000188657 -3.18825e-19)
(0.0799713 -0.000323484 -8.18685e-19)
(0.0383097 -0.000160806 -1.4185e-19)
(0.0416635 -0.000176605 1.30887e-20)
(0.0415318 -0.000178799 2.19372e-20)
(0.0415882 -0.000181801 -3.38304e-19)
(0.041595 -0.000185012 2.07575e-19)
(0.0421452 -0.00018677 6.08306e-19)
(0.0792293 -0.000321333 -5.4013e-19)
(0.0379388 -0.000159222 5.62614e-19)
(0.0412563 -0.000174918 -1.03031e-19)
(0.0411195 -0.000177061 7.05001e-19)
(0.041169 -0.000180007 -6.51251e-19)
(0.0411685 -0.000183154 5.82514e-19)
(0.0417146 -0.000184901 -9.80201e-19)
(0.0784802 -0.00031818 -5.20329e-20)
(0.0375744 -0.000157869 5.21293e-19)
(0.0408527 -0.000173226 -4.29174e-20)
(0.0407113 -0.000175341 -3.89106e-20)
(0.0407541 -0.00017823 5.45973e-19)
(0.0407463 -0.000181315 2.64981e-20)
(0.0412883 -0.000183051 5.0692e-19)
(0.07749 -0.000290141 7.90092e-21)
(0.0374129 -0.000177335 9.43228e-21)
(0.0404327 -0.000169444 -1.93156e-21)
(0.0403083 -0.000173761 -7.39291e-21)
(0.0403432 -0.000176466 1.90167e-21)
(0.0403284 -0.000179495 3.58938e-20)
(0.0408663 -0.000181219 -4.0762e-19)
(0.0766528 -0.000275365 1.85605e-18)
(0.0368983 -0.000160431 -4.73452e-20)
(0.0400761 -0.000172455 -1.03143e-18)
(0.0399297 -0.000174709 -3.75741e-19)
(0.0399149 -0.000177692 5.88106e-19)
(0.0404486 -0.000179405 -3.95977e-20)
(0.076313 -0.000313952 -6.3619e-19)
(0.0365055 -0.000155676 9.31373e-20)
(0.0396799 -0.000170947 -5.80558e-19)
(0.039527 -0.000172977 5.09131e-19)
(0.0395055 -0.000175908 9.40652e-19)
(0.0400351 -0.000177609 -9.01936e-20)
(0.0755318 -0.000291198 -8.53196e-19)
(0.0361528 -0.00015621 6.57007e-20)
(0.0392856 -0.000169166 -7.93042e-20)
(0.0391285 -0.000171274 8.76261e-19)
(0.0391001 -0.000174141 1.0005e-18)
(0.0396258 -0.000175831 1.46105e-20)
(0.0740729 -1.86887e-05 -4.61265e-20)
(0.0359084 -0.000191185 4.10117e-21)
(0.0388851 -0.000161868 -5.17469e-20)
(0.0387305 -0.000167083 6.29505e-19)
(0.0387408 -0.000169537 -5.47468e-20)
(0.0386991 -0.000172332 4.74549e-20)
(0.039221 -0.000174017 -5.07865e-19)
)
;

boundaryField
{
    inlet
    {
        type            calculated;
        value           nonuniform List<vector> 0();
    }
    outlet2
    {
        type            calculated;
        value           uniform (0 0 0);
    }
    outlet1
    {
        type            calculated;
        value           uniform (0 0 0);
    }
    wall
    {
        type            calculated;
        value           uniform (0 0 0);
    }
    symmetryBottom
    {
        type            symmetry;
    }
    symmetryZ0
    {
        type            symmetry;
    }
    symmetryZ05
    {
        type            symmetry;
    }
    procBoundary0to1
    {
        type            processor;
        value           uniform (0 0 0);
    }
}


// ************************************************************************* //
