/*--------------------------------*- C++ -*----------------------------------*\
| =========                 |                                                 |
| \\      /  F ield         | OpenFOAM: The Open Source CFD Toolbox           |
|  \\    /   O peration     | Version:  2412                                  |
|   \\  /    A nd           | Website:  www.openfoam.com                      |
|    \\/     M anipulation  |                                                 |
\*---------------------------------------------------------------------------*/
FoamFile
{
    version     2.0;
    format      ascii;
    arch        "LSB;label=32;scalar=64";
    class       volVectorField;
    location    "1e-05";
    object      U;
}
// * * * * * * * * * * * * * * * * * * * * * * * * * * * * * * * * * * * * * //

dimensions      [0 0 0 0 0 0 0];

internalField   nonuniform List<vector> 
84
(
(2636.4 -0.206408 1.21225e-14)
(2622.88 -0.242073 -1.3256e-14)
(2626.12 -0.241681 -3.4275e-14)
(2625.89 -0.249384 1.73572e-14)
(2625.9 -0.256882 -1.95479e-15)
(2625.9 -0.26471 -1.36882e-15)
(2625.86 -0.273914 3.09088e-14)
(2626.13 -0.271569 2.60653e-15)
(2637.94 -10.3215 1.11076e-14)
(2624.61 -10.6524 -1.17795e-14)
(2627.82 -10.7476 -3.97816e-14)
(2627.63 -10.911 9.70006e-15)
(2627.66 -11.0743 -6.97312e-14)
(2627.69 -11.2419 8.7697e-15)
(2627.68 -11.4344 5.56287e-14)
(2627.93 -11.3943 9.65925e-15)
(2637.64 -9.65041 -5.0755e-14)
(2624.96 -12.1989 1.19583e-14)
(2627.65 -10.8388 1.93224e-14)
(2627.51 -11.1411 -1.55662e-15)
(2627.54 -11.3033 -4.23175e-15)
(2627.57 -11.478 3.07463e-14)
(2627.55 -11.6785 -2.06841e-14)
(2627.81 -11.6367 -2.46534e-14)
(2637.39 -9.36753 -5.08935e-14)
(2624.46 -11.2216 3.62019e-14)
(2627.57 -11.1255 2.48589e-15)
(2627.37 -11.3092 -6.69021e-14)
(2627.41 -11.4831 6.06362e-14)
(2627.39 -11.6839 1.01324e-14)
(2627.65 -11.6421 -1.96748e-14)
(2637.55 -10.6689 -2.70012e-14)
(2624.2 -11.0152 -9.7167e-15)
(2627.42 -11.1372 8.25412e-16)
(2627.21 -11.3105 1.3877e-15)
(2627.25 -11.4849 -2.13716e-14)
(2627.23 -11.6857 1.31109e-14)
(2627.49 -11.6439 3.7924e-14)
(2637.4 -10.6966 -1.798e-14)
(2624.04 -11.0126 3.89132e-14)
(2627.26 -11.139 -6.56119e-15)
(2627.06 -11.3121 4.50413e-14)
(2627.08 -11.4866 -4.15577e-14)
(2627.06 -11.6875 3.71717e-14)
(2627.32 -11.6457 -6.17364e-14)
(2637.26 -10.6921 -1.74852e-15)
(2623.89 -11.0243 3.64029e-14)
(2627.11 -11.1396 -2.75988e-15)
(2626.9 -11.3139 -2.5107e-15)
(2626.92 -11.4884 3.51923e-14)
(2626.9 -11.6893 1.70832e-15)
(2627.16 -11.6475 3.22552e-14)
(2637.03 -9.87367 2.68873e-16)
(2623.95 -12.4373 6.61532e-16)
(2626.92 -11.0089 -1.25494e-16)
(2626.74 -11.3233 -4.81767e-16)
(2626.76 -11.4898 1.23819e-16)
(2626.73 -11.6911 2.3379e-15)
(2627 -11.6492 -2.62029e-14)
(2636.83 -9.47245 6.38472e-14)
(2623.63 -11.4073 -3.36645e-15)
(2626.8 -11.3036 -6.76054e-14)
(2626.59 -11.4924 -2.47164e-14)
(2626.57 -11.6929 3.86998e-14)
(2626.83 -11.651 -2.57158e-15)
(2636.82 -10.8479 -2.1982e-14)
(2623.43 -11.1875 6.69321e-15)
(2626.64 -11.316 -3.84305e-14)
(2626.43 -11.4937 3.38299e-14)
(2626.41 -11.6947 6.25366e-14)
(2626.67 -11.6528 -5.91753e-15)
(2636.65 -10.1651 -2.97832e-14)
(2623.28 -11.3347 4.76729e-15)
(2626.48 -11.3098 -5.30197e-15)
(2626.27 -11.4958 5.88139e-14)
(2626.24 -11.6965 6.72005e-14)
(2626.51 -11.6546 9.68424e-16)
(2636.38 -0.665165 -1.64172e-15)
(2623.23 -13.9667 2.99604e-16)
(2626.31 -10.9326 -3.495e-15)
(2626.1 -11.329 4.26834e-14)
(2626.12 -11.4924 -3.71111e-15)
(2626.08 -11.6942 3.22024e-15)
(2626.35 -11.6526 -3.4008e-14)
)
;

boundaryField
{
    inlet
    {
        type            calculated;
        value           nonuniform List<vector> 0();
    }
    outlet2
    {
        type            calculated;
        value           uniform (0 0 0);
    }
    outlet1
    {
        type            calculated;
        value           uniform (0 0 0);
    }
    wall
    {
        type            calculated;
        value           uniform (0 0 0);
    }
    symmetryBottom
    {
        type            symmetry;
    }
    symmetryZ0
    {
        type            symmetry;
    }
    symmetryZ05
    {
        type            symmetry;
    }
    procBoundary0to1
    {
        type            processor;
        value           uniform (0 0 0);
    }
}


// ************************************************************************* //
