/*--------------------------------*- C++ -*----------------------------------*\
| =========                 |                                                 |
| \\      /  F ield         | OpenFOAM: The Open Source CFD Toolbox           |
|  \\    /   O peration     | Version:  2412                                  |
|   \\  /    A nd           | Website:  www.openfoam.com                      |
|    \\/     M anipulation  |                                                 |
\*---------------------------------------------------------------------------*/
FoamFile
{
    version     2.0;
    format      ascii;
    arch        "LSB;label=32;scalar=64";
    class       volScalarField;
    location    "7e-06";
    object      E_dof0;
}
// * * * * * * * * * * * * * * * * * * * * * * * * * * * * * * * * * * * * * //

dimensions      [0 0 0 0 0 0 0];

internalField   nonuniform List<scalar> 
84
(
96.1239
59.1741
63.4236
63.1059
63.129
63.1333
63.1386
63.6523
102.448
63.1711
67.7515
67.4804
67.5726
67.6472
67.7251
68.2667
101.169
63.3493
67.2049
67.0222
67.0992
67.1663
67.2361
67.7748
100.701
62.4053
66.89
66.6107
66.6895
66.7505
67.2863
100.537
61.9398
66.4301
66.1432
66.2144
66.2674
66.8004
99.867
61.5156
65.9699
65.6777
65.7411
65.7862
66.3163
99.2095
61.1043
65.5197
65.223
65.2787
65.3161
65.8435
98.2527
61.0359
65.0358
64.7858
64.8302
64.8606
65.3852
97.7261
60.3655
64.6951
64.3903
64.4327
64.9539
97.2082
59.8412
64.1519
63.8405
63.8744
64.392
96.4226
59.4601
63.711
63.3965
63.4227
63.9376
95.2032
59.2222
63.2585
62.9615
62.9791
62.9797
63.4928
)
;

boundaryField
{
    inlet
    {
        type            calculated;
        value           nonuniform List<scalar> 0();
    }
    outlet2
    {
        type            calculated;
        value           uniform 99.4306;
    }
    outlet1
    {
        type            calculated;
        value           uniform 99.4306;
    }
    wall
    {
        type            calculated;
        value           uniform 99.4306;
    }
    symmetryBottom
    {
        type            symmetry;
    }
    symmetryZ0
    {
        type            symmetry;
    }
    symmetryZ05
    {
        type            symmetry;
    }
    procBoundary0to1
    {
        type            processor;
        value           uniform 99.4306;
    }
}


// ************************************************************************* //
