/*--------------------------------*- C++ -*----------------------------------*\
| =========                 |                                                 |
| \\      /  F ield         | OpenFOAM: The Open Source CFD Toolbox           |
|  \\    /   O peration     | Version:  2412                                  |
|   \\  /    A nd           | Website:  www.openfoam.com                      |
|    \\/     M anipulation  |                                                 |
\*---------------------------------------------------------------------------*/
FoamFile
{
    version     2.0;
    format      ascii;
    arch        "LSB;label=32;scalar=64";
    class       volScalarField;
    location    "7e-06";
    object      rho;
}
// * * * * * * * * * * * * * * * * * * * * * * * * * * * * * * * * * * * * * //

dimensions      [0 0 0 0 0 0 0];

internalField   nonuniform List<scalar> 
84
(
2.72121e-05
1.6857e-05
1.80343e-05
1.79475e-05
1.7954e-05
1.79554e-05
1.79571e-05
1.81012e-05
2.8963e-05
1.79691e-05
1.92368e-05
1.91631e-05
1.91888e-05
1.92097e-05
1.92316e-05
1.93834e-05
2.86071e-05
1.80165e-05
1.9084e-05
1.90344e-05
1.90559e-05
1.90748e-05
1.90944e-05
1.92454e-05
2.8476e-05
1.77536e-05
1.8995e-05
1.8919e-05
1.8941e-05
1.89581e-05
1.91083e-05
2.84289e-05
1.7623e-05
1.8866e-05
1.87878e-05
1.88076e-05
1.88225e-05
1.89719e-05
2.82408e-05
1.75034e-05
1.87363e-05
1.86566e-05
1.86742e-05
1.86869e-05
1.88355e-05
2.80518e-05
1.73851e-05
1.86069e-05
1.85259e-05
1.85413e-05
1.85518e-05
1.86996e-05
2.77788e-05
1.73614e-05
1.84675e-05
1.83993e-05
1.84115e-05
1.84199e-05
1.85669e-05
2.76061e-05
1.71556e-05
1.83517e-05
1.82682e-05
1.82793e-05
1.84253e-05
2.75193e-05
1.70443e-05
1.82393e-05
1.81543e-05
1.81638e-05
1.83091e-05
2.72845e-05
1.69289e-05
1.81063e-05
1.80203e-05
1.80275e-05
1.8172e-05
2.69378e-05
1.68602e-05
1.7977e-05
1.78959e-05
1.79007e-05
1.79009e-05
1.80448e-05
)
;

boundaryField
{
    inlet
    {
        type            calculated;
        value           nonuniform List<scalar> 0();
    }
    outlet2
    {
        type            calculated;
        value           uniform 0;
    }
    outlet1
    {
        type            calculated;
        value           uniform 0;
    }
    wall
    {
        type            calculated;
        value           uniform 0;
    }
    symmetryBottom
    {
        type            symmetry;
    }
    symmetryZ0
    {
        type            symmetry;
    }
    symmetryZ05
    {
        type            symmetry;
    }
    procBoundary0to1
    {
        type            processor;
        value           uniform 0;
    }
}


// ************************************************************************* //
