/*--------------------------------*- C++ -*----------------------------------*\
| =========                 |                                                 |
| \\      /  F ield         | OpenFOAM: The Open Source CFD Toolbox           |
|  \\    /   O peration     | Version:  2412                                  |
|   \\  /    A nd           | Website:  www.openfoam.com                      |
|    \\/     M anipulation  |                                                 |
\*---------------------------------------------------------------------------*/
FoamFile
{
    version     2.0;
    format      ascii;
    arch        "LSB;label=32;scalar=64";
    class       volVectorField;
    location    "7e-06";
    object      rhoU_dof0;
}
// * * * * * * * * * * * * * * * * * * * * * * * * * * * * * * * * * * * * * //

dimensions      [0 0 0 0 0 0 0];

internalField   nonuniform List<vector> 
84
(
(0.0716762 0.000193843 1.96792e-19)
(0.0442597 0.000122337 -1.86669e-19)
(0.047395 0.000132593 -3.05578e-19)
(0.047162 0.000133862 2.09152e-19)
(0.047179 0.00013586 -3.28504e-20)
(0.0471823 0.000137879 2.66182e-20)
(0.0471863 0.000139961 2.92898e-19)
(0.0475677 0.000140829 3.09347e-20)
(0.0763555 -0.000212875 1.98812e-19)
(0.0472243 -0.000136857 -1.86719e-19)
(0.0506029 -0.000147526 -4.05191e-19)
(0.0504046 -0.000149304 5.72521e-20)
(0.0504729 -0.000151778 -7.54932e-19)
(0.0505282 -0.000154301 1.98736e-19)
(0.0505861 -0.000156911 6.19209e-19)
(0.0509881 -0.000157821 1.13339e-19)
(0.0754098 -0.000188485 -7.80463e-19)
(0.0473532 -0.000157406 1.61508e-19)
(0.0501977 -0.000143548 2.19157e-19)
(0.0500642 -0.00014856 -3.1866e-20)
(0.0501212 -0.000150743 -1.18421e-20)
(0.0501711 -0.000153248 2.92334e-19)
(0.0502229 -0.000155823 -2.52941e-19)
(0.0506228 -0.000156729 -2.78165e-19)
(0.0750622 -0.000195978 -7.42849e-19)
(0.0466549 -0.000138138 3.48098e-19)
(0.0499631 -0.000147914 -4.4418e-20)
(0.0497587 -0.000149712 -6.74926e-19)
(0.049817 -0.000152204 6.8603e-19)
(0.0498623 -0.000154743 1.04735e-19)
(0.05026 -0.000155645 -2.54106e-19)
(0.0749391 -0.000212621 -4.46423e-19)
(0.0463093 -0.000135923 -1.11815e-19)
(0.0496215 -0.000147062 1.52199e-20)
(0.0494115 -0.000148755 4.5942e-21)
(0.0494641 -0.000151219 -2.29511e-19)
(0.0495035 -0.000153726 2.12259e-19)
(0.0498991 -0.000154624 4.28356e-19)
(0.0744396 -0.00020484 -2.89301e-19)
(0.0459921 -0.000130667 3.66715e-19)
(0.0492777 -0.000141497 -4.65602e-20)
(0.0490638 -0.000143159 4.35572e-19)
(0.0491106 -0.000145572 -4.06823e-19)
(0.0491441 -0.00014803 3.40067e-19)
(0.0495376 -0.000148896 -7.20712e-19)
(0.0739349 -0.00016365 -1.16587e-22)
(0.0456763 -0.0001047 3.32908e-19)
(0.0489321 -0.000113107 -4.41611e-20)
(0.0487147 -0.000114454 2.13429e-21)
(0.0487556 -0.000116365 3.56108e-19)
(0.0487832 -0.000118312 3.70026e-20)
(0.0491745 -0.000119007 3.52255e-19)
(0.0732095 -0.000119239 8.03157e-21)
(0.0456129 -0.000105786 6.23692e-21)
(0.0485613 -9.36776e-05 -2.29113e-21)
(0.048378 -9.74181e-05 -5.91154e-21)
(0.0484104 -9.88513e-05 -1.13505e-21)
(0.0484325 -0.000100534 2.89131e-21)
(0.0488217 -0.000101122 -2.78615e-19)
(0.0727482 -0.00011386 1.0486e-18)
(0.0450636 -7.99087e-05 -1.1556e-19)
(0.0482514 -8.56939e-05 -7.40672e-19)
(0.0480269 -8.6709e-05 -2.10711e-19)
(0.0480565 -8.81414e-05 4.15475e-19)
(0.0484429 -8.86652e-05 -5.97408e-20)
(0.072524 -0.000120083 -3.68731e-19)
(0.0447798 -7.62784e-05 4.12415e-20)
(0.0479633 -8.25875e-05 -3.40318e-19)
(0.0477353 -8.34549e-05 3.85415e-19)
(0.0477608 -8.47645e-05 6.36579e-19)
(0.0481453 -8.52782e-05 -7.97282e-20)
(0.0719034 -0.000125199 -4.59903e-19)
(0.0444738 -8.81032e-05 5.56665e-20)
(0.0476108 -9.35268e-05 -3.15352e-21)
(0.0473802 -9.46748e-05 6.63028e-19)
(0.0473996 -9.61765e-05 6.64504e-19)
(0.047782 -9.67561e-05 1.70185e-20)
(0.0709864 -2.08395e-05 -4.04324e-20)
(0.0442926 -0.000122308 3.29371e-21)
(0.0472694 -0.000107803 -1.89055e-22)
(0.0470517 -0.000111071 4.04172e-19)
(0.0470646 -0.000112655 -5.22784e-20)
(0.0470651 -0.000114412 4.1782e-21)
(0.0474461 -0.000115108 -3.30896e-19)
)
;

boundaryField
{
    inlet
    {
        type            calculated;
        value           nonuniform List<vector> 0();
    }
    outlet2
    {
        type            calculated;
        value           uniform (0.0741049 0 0);
    }
    outlet1
    {
        type            calculated;
        value           uniform (0.0741049 0 0);
    }
    wall
    {
        type            calculated;
        value           uniform (0.0741049 0 0);
    }
    symmetryBottom
    {
        type            symmetry;
    }
    symmetryZ0
    {
        type            symmetry;
    }
    symmetryZ05
    {
        type            symmetry;
    }
    procBoundary0to1
    {
        type            processor;
        value           uniform (0.0741049 0 0);
    }
}


// ************************************************************************* //
