/*--------------------------------*- C++ -*----------------------------------*\
| =========                 |                                                 |
| \\      /  F ield         | OpenFOAM: The Open Source CFD Toolbox           |
|  \\    /   O peration     | Version:  2412                                  |
|   \\  /    A nd           | Website:  www.openfoam.com                      |
|    \\/     M anipulation  |                                                 |
\*---------------------------------------------------------------------------*/
FoamFile
{
    version     2.0;
    format      ascii;
    arch        "LSB;label=32;scalar=64";
    class       volScalarField;
    location    "3.7e-06";
    object      E;
}
// * * * * * * * * * * * * * * * * * * * * * * * * * * * * * * * * * * * * * //

dimensions      [0 0 0 0 0 0 0];

internalField   nonuniform List<scalar> 
84
(
98.572
76.8923
78.1947
78.1457
78.149
78.1509
78.153
78.4709
101.989
79.6183
81.0044
80.9964
81.0438
81.0912
81.14
81.467
101.447
79.506
80.7
80.7009
80.7431
80.7856
80.8295
81.1555
101.171
79.092
80.4575
80.442
80.4812
80.5201
80.8452
100.975
78.8001
80.1633
80.1431
80.1775
80.2115
80.5357
100.62
78.5163
79.8706
79.846
79.8757
79.9047
80.228
100.273
78.2393
79.5845
79.5555
79.5806
79.6048
79.9273
99.8314
78.0616
79.2964
79.2706
79.2908
79.3105
79.632
99.5499
77.7347
79.0609
79.0243
79.0411
79.3619
99.1906
77.3738
78.6927
78.6507
78.6617
78.9812
98.8078
77.1087
78.4153
78.3691
78.3755
78.6943
98.1333
76.8844
78.1277
78.0808
78.0825
78.0829
78.4008
)
;

boundaryField
{
    inlet
    {
        type            calculated;
        value           nonuniform List<scalar> 0();
    }
    outlet2
    {
        type            calculated;
        value           uniform 0;
    }
    outlet1
    {
        type            calculated;
        value           uniform 0;
    }
    wall
    {
        type            calculated;
        value           uniform 0;
    }
    symmetryBottom
    {
        type            symmetry;
    }
    symmetryZ0
    {
        type            symmetry;
    }
    symmetryZ05
    {
        type            symmetry;
    }
    procBoundary0to1
    {
        type            processor;
        value           uniform 0;
    }
}


// ************************************************************************* //
