/*--------------------------------*- C++ -*----------------------------------*\
| =========                 |                                                 |
| \\      /  F ield         | OpenFOAM: The Open Source CFD Toolbox           |
|  \\    /   O peration     | Version:  2412                                  |
|   \\  /    A nd           | Website:  www.openfoam.com                      |
|    \\/     M anipulation  |                                                 |
\*---------------------------------------------------------------------------*/
FoamFile
{
    version     2.0;
    format      ascii;
    arch        "LSB;label=32;scalar=64";
    class       volScalarField;
    location    "3.7e-06";
    object      rho_dof0;
}
// * * * * * * * * * * * * * * * * * * * * * * * * * * * * * * * * * * * * * //

dimensions      [0 0 0 0 0 0 0];

internalField   nonuniform List<scalar> 
84
(
2.78815e-05
2.18145e-05
2.21749e-05
2.21616e-05
2.21627e-05
2.21633e-05
2.2164e-05
2.22531e-05
2.8827e-05
2.25707e-05
2.2954e-05
2.29521e-05
2.29654e-05
2.29786e-05
2.29923e-05
2.30838e-05
2.8676e-05
2.25386e-05
2.28689e-05
2.28694e-05
2.28812e-05
2.28931e-05
2.29054e-05
2.29966e-05
2.85991e-05
2.24232e-05
2.28009e-05
2.27969e-05
2.28078e-05
2.28187e-05
2.29097e-05
2.85437e-05
2.23414e-05
2.27184e-05
2.27131e-05
2.27228e-05
2.27323e-05
2.2823e-05
2.8444e-05
2.22615e-05
2.2636e-05
2.26295e-05
2.26378e-05
2.26459e-05
2.27364e-05
2.83442e-05
2.21819e-05
2.25538e-05
2.2546e-05
2.2553e-05
2.25597e-05
2.265e-05
2.82178e-05
2.21294e-05
2.24706e-05
2.24636e-05
2.24692e-05
2.24746e-05
2.25646e-05
2.81255e-05
2.20263e-05
2.23925e-05
2.23823e-05
2.23867e-05
2.24764e-05
2.80561e-05
2.195e-05
2.23151e-05
2.23038e-05
2.2307e-05
2.23965e-05
2.79412e-05
2.18698e-05
2.22312e-05
2.22187e-05
2.22205e-05
2.23098e-05
2.77497e-05
2.18056e-05
2.21492e-05
2.21364e-05
2.21369e-05
2.2137e-05
2.2226e-05
)
;

boundaryField
{
    inlet
    {
        type            calculated;
        value           nonuniform List<scalar> 0();
    }
    outlet2
    {
        type            calculated;
        value           uniform 2.81085e-05;
    }
    outlet1
    {
        type            calculated;
        value           uniform 2.81085e-05;
    }
    wall
    {
        type            calculated;
        value           uniform 2.81085e-05;
    }
    symmetryBottom
    {
        type            symmetry;
    }
    symmetryZ0
    {
        type            symmetry;
    }
    symmetryZ05
    {
        type            symmetry;
    }
    procBoundary0to1
    {
        type            processor;
        value           uniform 2.81085e-05;
    }
}


// ************************************************************************* //
