/*--------------------------------*- C++ -*----------------------------------*\
| =========                 |                                                 |
| \\      /  F ield         | OpenFOAM: The Open Source CFD Toolbox           |
|  \\    /   O peration     | Version:  2412                                  |
|   \\  /    A nd           | Website:  www.openfoam.com                      |
|    \\/     M anipulation  |                                                 |
\*---------------------------------------------------------------------------*/
FoamFile
{
    version     2.0;
    format      ascii;
    arch        "LSB;label=32;scalar=64";
    class       volVectorField;
    location    "3.7e-06";
    object      U;
}
// * * * * * * * * * * * * * * * * * * * * * * * * * * * * * * * * * * * * * //

dimensions      [0 0 0 0 0 0 0];

internalField   nonuniform List<vector> 
84
(
(2635.36 3.85212 3.92681e-15)
(2631.34 3.92367 -4.94793e-15)
(2631.89 3.97862 -1.04526e-14)
(2631.85 4.03733 5.31056e-15)
(2631.84 4.09768 -3.87748e-16)
(2631.82 4.15987 6.41166e-16)
(2631.81 4.22397 9.97823e-15)
(2631.88 4.21989 1.88787e-15)
(2636.6 -3.8947 3.92715e-15)
(2632.64 -4.00627 -4.75221e-15)
(2633.2 -4.05635 -1.22628e-14)
(2633.17 -4.11794 9.222e-16)
(2633.18 -4.18083 -2.24123e-14)
(2633.19 -4.24568 3.89594e-15)
(2633.2 -4.31259 1.80299e-14)
(2633.27 -4.30775 3.67207e-15)
(2636.5 -3.65611 -1.7036e-14)
(2632.66 -4.26453 3.55149e-15)
(2633.13 -4.03858 6.61552e-15)
(2633.12 -4.11949 -4.77326e-16)
(2633.13 -4.18162 -2.1712e-16)
(2633.13 -4.24653 9.35952e-15)
(2633.14 -4.31346 -7.54712e-15)
(2633.21 -4.30862 -9.27953e-15)
(2636.46 -3.76583 -1.67015e-14)
(2632.54 -4.07403 1.00557e-14)
(2633.09 -4.11891 -6.63376e-16)
(2633.07 -4.18249 -2.02352e-14)
(2633.08 -4.24738 1.92425e-14)
(2633.08 -4.31434 3.84567e-15)
(2633.15 -4.3095 -7.56326e-15)
(2636.45 -3.95679 -9.68605e-15)
(2632.48 -4.06617 -3.86789e-15)
(2633.03 -4.12072 2.46443e-16)
(2633.01 -4.18408 7.51377e-17)
(2633.02 -4.24903 -6.97781e-15)
(2633.02 -4.31604 5.39155e-15)
(2633.09 -4.3112 1.2871e-14)
(2636.38 -3.79405 -5.94977e-15)
(2632.4 -3.89454 1.1203e-14)
(2632.95 -3.94812 -6.98194e-16)
(2632.93 -4.00957 1.32708e-14)
(2632.93 -4.07262 -1.19227e-14)
(2632.94 -4.1377 1.02897e-14)
(2633.01 -4.1331 -2.18538e-14)
(2636.26 -3.05825 -1.49947e-18)
(2632.26 -3.13952 1.1055e-14)
(2632.82 -3.18157 -6.88208e-16)
(2632.79 -3.23114 -1.04229e-17)
(2632.8 -3.2819 1.11534e-14)
(2632.8 -3.3343 1.6684e-15)
(2632.87 -3.33064 1.11879e-14)
(2636.17 -2.38827 8.78658e-17)
(2632.2 -2.8728 7.79307e-17)
(2632.72 -2.6839 -4.25402e-17)
(2632.7 -2.74205 -9.00237e-17)
(2632.7 -2.78482 -1.75088e-17)
(2632.7 -2.82966 3.4251e-17)
(2632.77 -2.82656 -9.86852e-15)
(2636.08 -2.25676 2.0988e-14)
(2632.06 -2.43173 -1.5896e-15)
(2632.62 -2.46083 -2.26637e-14)
(2632.58 -2.49954 -8.3837e-15)
(2632.59 -2.53917 1.25373e-14)
(2632.65 -2.53647 -4.67903e-16)
(2636.11 -2.34748 -7.57291e-15)
(2632.16 -2.4013 5.69108e-16)
(2632.71 -2.4349 -1.08813e-14)
(2632.68 -2.47218 1.16369e-14)
(2632.68 -2.51047 1.97247e-14)
(2632.75 -2.50788 -1.37979e-15)
(2636.08 -2.53824 -1.03995e-14)
(2632.11 -2.72528 7.65774e-16)
(2632.66 -2.7522 -1.26106e-17)
(2632.63 -2.79526 2.03323e-14)
(2632.63 -2.83903 2.15158e-14)
(2632.69 -2.83607 1.18023e-15)
(2636.01 -0.243678 -5.30904e-16)
(2632.08 -3.50354 2.62067e-17)
(2632.62 -3.23948 -7.19796e-19)
(2632.59 -3.30375 1.27862e-14)
(2632.59 -3.35413 -8.30927e-16)
(2632.59 -3.40661 3.29799e-17)
(2632.66 -3.40316 -1.13463e-14)
)
;

boundaryField
{
    inlet
    {
        type            calculated;
        value           nonuniform List<vector> 0();
    }
    outlet2
    {
        type            calculated;
        value           uniform (0 0 0);
    }
    outlet1
    {
        type            calculated;
        value           uniform (0 0 0);
    }
    wall
    {
        type            calculated;
        value           uniform (0 0 0);
    }
    symmetryBottom
    {
        type            symmetry;
    }
    symmetryZ0
    {
        type            symmetry;
    }
    symmetryZ05
    {
        type            symmetry;
    }
    procBoundary0to1
    {
        type            processor;
        value           uniform (0 0 0);
    }
}


// ************************************************************************* //
