/*--------------------------------*- C++ -*----------------------------------*\
| =========                 |                                                 |
| \\      /  F ield         | OpenFOAM: The Open Source CFD Toolbox           |
|  \\    /   O peration     | Version:  2412                                  |
|   \\  /    A nd           | Website:  www.openfoam.com                      |
|    \\/     M anipulation  |                                                 |
\*---------------------------------------------------------------------------*/
FoamFile
{
    version     2.0;
    format      ascii;
    arch        "LSB;label=32;scalar=64";
    class       volScalarField;
    location    "1.1e-06";
    object      E_dof0;
}
// * * * * * * * * * * * * * * * * * * * * * * * * * * * * * * * * * * * * * //

dimensions      [0 0 0 0 0 0 0];

internalField   nonuniform List<scalar> 
84
(
99.4309
82.6152
83.2861
99.432
82.6195
83.2902
99.4317
82.6192
83.2899
99.4317
82.6192
83.2899
99.4317
82.6192
83.2899
99.4317
82.6192
83.2899
99.4317
82.6192
83.2899
99.4317
82.6192
83.2899
99.4317
82.6192
83.2899
99.4317
82.6192
83.2899
99.4317
82.6192
83.2899
99.4318
82.6178
83.2886
92.702
92.5412
92.638
93.6345
93.4707
93.5683
93.5396
93.3761
93.4735
93.4447
93.2815
93.2941
92.5197
93.35
93.187
93.1982
93.2952
93.2559
93.0933
93.1031
93.2
93.1639
93.0015
93.01
93.1069
93.0727
92.9106
92.9178
93.0145
92.9914
92.8293
92.8354
92.8398
92.5262
92.8685
92.7072
92.7114
92.7141
92.8117
92.7812
92.6201
92.6231
92.6245
92.7259
92.6887
92.5279
92.5296
92.626
)
;

boundaryField
{
    inlet
    {
        type            calculated;
        value           uniform 99.4306;
    }
    outlet2
    {
        type            calculated;
        value           uniform 99.4306;
    }
    outlet1
    {
        type            calculated;
        value           nonuniform List<scalar> 0();
    }
    wall
    {
        type            calculated;
        value           uniform 99.4306;
    }
    symmetryBottom
    {
        type            symmetry;
    }
    symmetryZ0
    {
        type            symmetry;
    }
    symmetryZ05
    {
        type            symmetry;
    }
    procBoundary1to0
    {
        type            processor;
        value           uniform 99.4306;
    }
}


// ************************************************************************* //
