/*--------------------------------*- C++ -*----------------------------------*\
| =========                 |                                                 |
| \\      /  F ield         | OpenFOAM: The Open Source CFD Toolbox           |
|  \\    /   O peration     | Version:  2412                                  |
|   \\  /    A nd           | Website:  www.openfoam.com                      |
|    \\/     M anipulation  |                                                 |
\*---------------------------------------------------------------------------*/
FoamFile
{
    version     2.0;
    format      ascii;
    arch        "LSB;label=32;scalar=64";
    class       volScalarField;
    location    "1.1e-06";
    object      rho;
}
// * * * * * * * * * * * * * * * * * * * * * * * * * * * * * * * * * * * * * //

dimensions      [0 0 0 0 0 0 0];

internalField   nonuniform List<scalar> 
84
(
2.81086e-05
2.3408e-05
2.35934e-05
2.81089e-05
2.34092e-05
2.35946e-05
2.81088e-05
2.34092e-05
2.35945e-05
2.81088e-05
2.34092e-05
2.35945e-05
2.81088e-05
2.34092e-05
2.35945e-05
2.81088e-05
2.34092e-05
2.35945e-05
2.81088e-05
2.34092e-05
2.35945e-05
2.81088e-05
2.34092e-05
2.35945e-05
2.81088e-05
2.34092e-05
2.35945e-05
2.81088e-05
2.34092e-05
2.35945e-05
2.81088e-05
2.34092e-05
2.35945e-05
2.81088e-05
2.34088e-05
2.35942e-05
2.62299e-05
2.61854e-05
2.62125e-05
2.6488e-05
2.64427e-05
2.647e-05
2.64614e-05
2.64163e-05
2.64435e-05
2.64349e-05
2.63898e-05
2.63933e-05
2.61769e-05
2.64084e-05
2.63634e-05
2.63665e-05
2.63937e-05
2.6382e-05
2.6337e-05
2.63398e-05
2.63669e-05
2.63555e-05
2.63107e-05
2.6313e-05
2.63401e-05
2.63292e-05
2.62844e-05
2.62864e-05
2.63134e-05
2.63026e-05
2.62579e-05
2.62595e-05
2.62607e-05
2.61788e-05
2.62767e-05
2.62321e-05
2.62333e-05
2.62341e-05
2.62614e-05
2.62502e-05
2.62057e-05
2.62065e-05
2.62069e-05
2.62353e-05
2.62239e-05
2.61794e-05
2.61799e-05
2.62069e-05
)
;

boundaryField
{
    inlet
    {
        type            calculated;
        value           uniform 0;
    }
    outlet2
    {
        type            calculated;
        value           uniform 0;
    }
    outlet1
    {
        type            calculated;
        value           nonuniform List<scalar> 0();
    }
    wall
    {
        type            calculated;
        value           uniform 0;
    }
    symmetryBottom
    {
        type            symmetry;
    }
    symmetryZ0
    {
        type            symmetry;
    }
    symmetryZ05
    {
        type            symmetry;
    }
    procBoundary1to0
    {
        type            processor;
        value           uniform 0;
    }
}


// ************************************************************************* //
