/*--------------------------------*- C++ -*----------------------------------*\
| =========                 |                                                 |
| \\      /  F ield         | OpenFOAM: The Open Source CFD Toolbox           |
|  \\    /   O peration     | Version:  2412                                  |
|   \\  /    A nd           | Website:  www.openfoam.com                      |
|    \\/     M anipulation  |                                                 |
\*---------------------------------------------------------------------------*/
FoamFile
{
    version     2.0;
    format      ascii;
    arch        "LSB;label=32;scalar=64";
    class       volVectorField;
    location    "1.1e-06";
    object      rhoU;
}
// * * * * * * * * * * * * * * * * * * * * * * * * * * * * * * * * * * * * * //

dimensions      [0 0 0 0 0 0 0];

internalField   nonuniform List<vector> 
84
(
(0.0741051 -1.91622e-08 0)
(0.0616413 -1.20444e-07 0)
(0.0621358 -1.13088e-07 -3.74703e-20)
(0.074106 -2.96264e-05 0)
(0.0616445 -2.61381e-05 0)
(0.0621388 -2.62775e-05 -3.43478e-20)
(0.0741058 -2.96025e-05 0)
(0.0616443 -2.61175e-05 0)
(0.0621386 -2.62567e-05 5.77668e-20)
(0.0741058 -2.96025e-05 0)
(0.0616443 -2.61175e-05 0)
(0.0621386 -2.62567e-05 -7.65043e-20)
(0.0741058 -2.96025e-05 0)
(0.0616443 -2.61175e-05 0)
(0.0621386 -2.62567e-05 -1.28025e-19)
(0.0741058 -2.96025e-05 0)
(0.0616443 -2.61175e-05 0)
(0.0621386 -2.62567e-05 7.33795e-20)
(0.0741058 -2.96025e-05 0)
(0.0616443 -2.61175e-05 0)
(0.0621386 -2.62567e-05 -9.2117e-20)
(0.0741058 -2.96025e-05 0)
(0.0616443 -2.61175e-05 0)
(0.0621386 -2.62567e-05 -1.07728e-19)
(0.0741058 -2.96025e-05 0)
(0.0616443 -2.61175e-05 0)
(0.0621386 -2.62567e-05 3.90313e-20)
(0.0741058 -2.96025e-05 0)
(0.0616443 -2.61175e-05 0)
(0.0621386 -2.62567e-05 -9.21182e-20)
(0.0741058 -2.96025e-05 0)
(0.0616443 -2.61174e-05 0)
(0.0621386 -2.62566e-05 -2.29509e-19)
(0.0741058 -2.96066e-05 0)
(0.0616433 -2.60179e-05 0)
(0.0621377 -2.61645e-05 0)
(0.0691185 2.98579e-05 6.20713e-22)
(0.069 2.97639e-05 3.21973e-20)
(0.0690717 2.9791e-05 3.06936e-21)
(0.0698084 -2.97279e-05 5.55177e-22)
(0.0696877 -3.01034e-05 3.22197e-20)
(0.06976 -3.01233e-05 -1.23975e-22)
(0.069738 -2.97036e-05 -9.54297e-22)
(0.0696175 -3.00786e-05 -1.4212e-20)
(0.0696897 -3.00941e-05 -6.5541e-20)
(0.0696677 -2.96791e-05 1.25676e-21)
(0.0695475 -3.00537e-05 -5.19479e-22)
(0.0695567 -3.04843e-05 7.6542e-24)
(0.0689828 3.13364e-07 4.63901e-20)
(0.0695975 -2.96548e-05 -1.81226e-20)
(0.0694774 -3.00291e-05 -2.03208e-22)
(0.0694857 -3.04589e-05 -5.09266e-22)
(0.0695576 -3.0479e-05 4.52172e-20)
(0.0695272 -2.81142e-05 -1.20195e-21)
(0.0694073 -2.84936e-05 -3.34755e-20)
(0.0694146 -2.8902e-05 -3.9789e-22)
(0.0694864 -2.89213e-05 3.05545e-20)
(0.0694566 -2.25626e-05 1.3022e-21)
(0.069337 -2.29564e-05 -4.17879e-23)
(0.0693432 -2.32843e-05 -2.38985e-22)
(0.069415 -2.33001e-05 -2.60714e-22)
(0.0693866 -1.8941e-05 2.01691e-21)
(0.0692671 -1.93445e-05 -3.20068e-20)
(0.0692723 -1.96203e-05 3.34209e-20)
(0.069344 -1.96306e-05 2.26672e-22)
(0.0693162 -1.71481e-05 -6.23235e-22)
(0.0691969 -1.7555e-05 -4.86643e-20)
(0.0692011 -1.7804e-05 -5.1423e-20)
(0.0692042 -1.80618e-05 5.1242e-20)
(0.0689879 3.41683e-07 3.46585e-19)
(0.0692477 -1.72181e-05 1.64984e-21)
(0.0691287 -1.76232e-05 -5.01532e-20)
(0.069132 -1.78714e-05 3.08963e-20)
(0.069134 -1.81285e-05 8.28225e-20)
(0.0692065 -1.81581e-05 5.12789e-20)
(0.0691778 -1.93542e-05 4.06984e-21)
(0.069059 -1.97528e-05 -3.20517e-23)
(0.0690612 -2.0032e-05 6.38804e-23)
(0.0690623 -2.03237e-05 5.80808e-24)
(0.0691374 -2.0549e-05 -4.57478e-20)
(0.0691081 -2.33244e-05 3.66548e-23)
(0.0689895 -2.37083e-05 4.89024e-20)
(0.0689908 -2.4044e-05 -7.71081e-22)
(0.0690623 -2.40595e-05 -8.08918e-20)
)
;

boundaryField
{
    inlet
    {
        type            calculated;
        value           uniform (0 0 0);
    }
    outlet2
    {
        type            calculated;
        value           uniform (0 0 0);
    }
    outlet1
    {
        type            calculated;
        value           nonuniform List<vector> 0();
    }
    wall
    {
        type            calculated;
        value           uniform (0 0 0);
    }
    symmetryBottom
    {
        type            symmetry;
    }
    symmetryZ0
    {
        type            symmetry;
    }
    symmetryZ05
    {
        type            symmetry;
    }
    procBoundary1to0
    {
        type            processor;
        value           uniform (0 0 0);
    }
}


// ************************************************************************* //
