/*--------------------------------*- C++ -*----------------------------------*\
| =========                 |                                                 |
| \\      /  F ield         | OpenFOAM: The Open Source CFD Toolbox           |
|  \\    /   O peration     | Version:  2412                                  |
|   \\  /    A nd           | Website:  www.openfoam.com                      |
|    \\/     M anipulation  |                                                 |
\*---------------------------------------------------------------------------*/
FoamFile
{
    version     2.0;
    format      ascii;
    arch        "LSB;label=32;scalar=64";
    class       volScalarField;
    location    "1.1e-06";
    object      T;
}
// * * * * * * * * * * * * * * * * * * * * * * * * * * * * * * * * * * * * * //

dimensions      [0 0 0 0 0 0 0];

internalField   nonuniform List<scalar> 
84
(
200.001
199.994
200.002
199.999
199.99
199.998
199.999
199.99
199.998
199.999
199.99
199.998
199.999
199.99
199.998
199.999
199.99
199.998
199.999
199.99
199.998
199.999
199.99
199.998
199.999
199.99
199.998
199.999
199.99
199.998
199.999
199.99
199.998
199.999
199.988
199.996
200.656
200.654
200.654
200.001
200
200
200.001
200
200
200.001
200
200
200.001
200.002
200
200
200
200.129
200.127
200.129
200.129
200.59
200.588
200.596
200.596
201.023
201.02
201.035
201.034
202.684
202.679
202.718
202.758
199.958
198.913
198.912
198.897
198.881
198.875
199.743
199.742
199.738
199.734
199.737
199.893
199.892
199.891
199.891
)
;

boundaryField
{
    inlet
    {
        type            calculated;
        value           uniform 0;
    }
    outlet2
    {
        type            calculated;
        value           uniform 0;
    }
    outlet1
    {
        type            calculated;
        value           nonuniform List<scalar> 0();
    }
    wall
    {
        type            calculated;
        value           uniform 0;
    }
    symmetryBottom
    {
        type            symmetry;
    }
    symmetryZ0
    {
        type            symmetry;
    }
    symmetryZ05
    {
        type            symmetry;
    }
    procBoundary1to0
    {
        type            processor;
        value           uniform 0;
    }
}


// ************************************************************************* //
