/*--------------------------------*- C++ -*----------------------------------*\
| =========                 |                                                 |
| \\      /  F ield         | OpenFOAM: The Open Source CFD Toolbox           |
|  \\    /   O peration     | Version:  2412                                  |
|   \\  /    A nd           | Website:  www.openfoam.com                      |
|    \\/     M anipulation  |                                                 |
\*---------------------------------------------------------------------------*/
FoamFile
{
    version     2.0;
    format      ascii;
    arch        "LSB;label=32;scalar=64";
    class       volScalarField;
    location    "8e-06";
    object      E_dof0;
}
// * * * * * * * * * * * * * * * * * * * * * * * * * * * * * * * * * * * * * //

dimensions      [0 0 0 0 0 0 0];

internalField   nonuniform List<scalar> 
84
(
95.1523
54.2309
59.6175
59.1545
59.1908
59.1953
59.2018
59.7616
102.312
58.4279
64.2711
63.8466
63.9582
64.0384
64.1229
64.7177
100.78
58.7577
63.6452
63.356
63.4461
63.5185
63.5942
64.1854
100.263
57.6302
63.3382
62.9076
63.0044
63.0697
63.6573
100.137
57.1235
62.8423
62.4033
62.4918
62.5484
63.1324
99.3738
56.6756
62.3443
61.9009
61.9808
62.0288
62.6092
98.6239
56.2429
61.8569
61.4102
61.4817
61.5213
62.0982
97.4984
56.2508
61.3166
60.9427
60.9992
61.0315
61.6049
96.9004
55.4713
60.9644
60.5118
60.5686
61.1371
96.3588
54.919
60.3882
59.9294
59.9772
60.5412
95.4465
54.5248
59.9088
59.4491
59.4882
60.049
94.0732
54.309
59.4167
58.9856
59.0143
59.0145
59.5736
)
;

boundaryField
{
    inlet
    {
        type            calculated;
        value           nonuniform List<scalar> 0();
    }
    outlet2
    {
        type            calculated;
        value           uniform 99.4306;
    }
    outlet1
    {
        type            calculated;
        value           uniform 99.4306;
    }
    wall
    {
        type            calculated;
        value           uniform 99.4306;
    }
    symmetryBottom
    {
        type            symmetry;
    }
    symmetryZ0
    {
        type            symmetry;
    }
    symmetryZ05
    {
        type            symmetry;
    }
    procBoundary0to1
    {
        type            processor;
        value           uniform 99.4306;
    }
}


// ************************************************************************* //
