/*--------------------------------*- C++ -*----------------------------------*\
| =========                 |                                                 |
| \\      /  F ield         | OpenFOAM: The Open Source CFD Toolbox           |
|  \\    /   O peration     | Version:  2412                                  |
|   \\  /    A nd           | Website:  www.openfoam.com                      |
|    \\/     M anipulation  |                                                 |
\*---------------------------------------------------------------------------*/
FoamFile
{
    version     2.0;
    format      ascii;
    arch        "LSB;label=32;scalar=64";
    class       volScalarField;
    location    "8e-06";
    object      rho_dof0;
}
// * * * * * * * * * * * * * * * * * * * * * * * * * * * * * * * * * * * * * //

dimensions      [0 0 0 0 0 0 0];

internalField   nonuniform List<scalar> 
84
(
2.69452e-05
1.54721e-05
1.6965e-05
1.68384e-05
1.68485e-05
1.685e-05
1.6852e-05
1.70092e-05
2.8928e-05
1.66412e-05
1.82587e-05
1.81431e-05
1.81741e-05
1.81966e-05
1.82204e-05
1.83872e-05
2.85014e-05
1.67303e-05
1.80839e-05
1.80052e-05
1.80303e-05
1.80506e-05
1.80719e-05
1.82377e-05
2.83566e-05
1.64163e-05
1.79968e-05
1.78794e-05
1.79062e-05
1.79246e-05
1.80894e-05
2.83199e-05
1.62741e-05
1.78575e-05
1.77377e-05
1.77622e-05
1.77782e-05
1.7942e-05
2.81057e-05
1.61477e-05
1.77172e-05
1.75961e-05
1.76182e-05
1.76317e-05
1.77945e-05
2.789e-05
1.60233e-05
1.75771e-05
1.74551e-05
1.74748e-05
1.74859e-05
1.76476e-05
2.75692e-05
1.60204e-05
1.74217e-05
1.73196e-05
1.73351e-05
1.7344e-05
1.75048e-05
2.73727e-05
1.57827e-05
1.73004e-05
1.71763e-05
1.71913e-05
1.73506e-05
2.72874e-05
1.5665e-05
1.71819e-05
1.70564e-05
1.70698e-05
1.72282e-05
2.70149e-05
1.55456e-05
1.70374e-05
1.69116e-05
1.69224e-05
1.70798e-05
2.66243e-05
1.5483e-05
1.68968e-05
1.67789e-05
1.67867e-05
1.67868e-05
1.69437e-05
)
;

boundaryField
{
    inlet
    {
        type            calculated;
        value           nonuniform List<scalar> 0();
    }
    outlet2
    {
        type            calculated;
        value           uniform 2.81085e-05;
    }
    outlet1
    {
        type            calculated;
        value           uniform 2.81085e-05;
    }
    wall
    {
        type            calculated;
        value           uniform 2.81085e-05;
    }
    symmetryBottom
    {
        type            symmetry;
    }
    symmetryZ0
    {
        type            symmetry;
    }
    symmetryZ05
    {
        type            symmetry;
    }
    procBoundary0to1
    {
        type            processor;
        value           uniform 2.81085e-05;
    }
}


// ************************************************************************* //
