/*--------------------------------*- C++ -*----------------------------------*\
| =========                 |                                                 |
| \\      /  F ield         | OpenFOAM: The Open Source CFD Toolbox           |
|  \\    /   O peration     | Version:  2412                                  |
|   \\  /    A nd           | Website:  www.openfoam.com                      |
|    \\/     M anipulation  |                                                 |
\*---------------------------------------------------------------------------*/
FoamFile
{
    version     2.0;
    format      ascii;
    arch        "LSB;label=32;scalar=64";
    class       volVectorField;
    location    "8e-06";
    object      rhoU_dof0;
}
// * * * * * * * * * * * * * * * * * * * * * * * * * * * * * * * * * * * * * //

dimensions      [0 0 0 0 0 0 0];

internalField   nonuniform List<vector> 
84
(
(0.0709602 0.000217807 2.28049e-19)
(0.0405912 0.000127421 -2.10583e-19)
(0.0445661 0.000141503 -3.19724e-19)
(0.0442265 0.000142464 2.09875e-19)
(0.0442531 0.000144606 -4.18812e-20)
(0.0442566 0.000146738 3.06632e-20)
(0.0442615 0.000148938 3.0645e-19)
(0.0446773 0.000150017 2.42179e-20)
(0.0762587 -0.00024278 2.19264e-19)
(0.0437059 -0.000145179 -2.07906e-19)
(0.0480164 -0.000159963 -4.29136e-19)
(0.0477057 -0.000161558 6.96866e-20)
(0.0477881 -0.000164287 -8.04217e-19)
(0.0478477 -0.000167043 2.17833e-19)
(0.0479105 -0.000169897 6.49391e-19)
(0.048352 -0.000171045 1.06981e-19)
(0.0751254 -0.00021184 -8.64496e-19)
(0.0439463 -0.000171892 1.91064e-19)
(0.0475526 -0.000154304 2.20135e-19)
(0.047341 -0.000160748 -3.86267e-20)
(0.0474077 -0.000162993 -1.38231e-20)
(0.0474615 -0.000165738 3.09257e-19)
(0.0475177 -0.000168547 -2.6819e-19)
(0.0479566 -0.000169689 -2.88935e-19)
(0.0747416 -0.00022108 -8.17127e-19)
(0.0431123 -0.000146614 3.8096e-19)
(0.0473234 -0.000160095 -5.51883e-20)
(0.047008 -0.000161702 -7.10256e-19)
(0.0470796 -0.000164444 7.33103e-19)
(0.0471281 -0.000167208 1.02099e-19)
(0.0475643 -0.000168344 -2.67107e-19)
(0.0746462 -0.000241999 -4.65824e-19)
(0.042736 -0.000143601 -1.09413e-19)
(0.0469549 -0.000159069 1.8197e-20)
(0.0466333 -0.000160514 5.49899e-21)
(0.0466986 -0.000163224 -2.34492e-19)
(0.0467408 -0.000165948 2.13679e-19)
(0.0471743 -0.000167078 4.58436e-19)
(0.0740774 -0.000233731 -3.2216e-19)
(0.0424011 -0.000138351 3.94494e-19)
(0.046583 -0.000153425 -5.75858e-20)
(0.0462581 -0.000154856 4.64394e-19)
(0.0463171 -0.000157524 -4.40202e-19)
(0.0463528 -0.000160208 3.66012e-19)
(0.0467836 -0.000161299 -7.65014e-19)
(0.0735017 -0.000186405 -1.40241e-22)
(0.0420688 -0.000110819 3.5051e-19)
(0.0462088 -0.000122464 -5.3897e-20)
(0.0458813 -0.000123648 3.44927e-21)
(0.0459338 -0.000125752 3.78878e-19)
(0.0459631 -0.000127873 3.41429e-20)
(0.0463912 -0.000128748 3.73455e-19)
(0.0726491 -0.000133366 9.94701e-21)
(0.0420608 -0.000116163 8.11098e-21)
(0.0457953 -0.000100648 -2.869e-21)
(0.0455211 -0.000105546 -7.25566e-21)
(0.0455623 -0.000107004 -1.27433e-21)
(0.0455858 -0.000108855 3.69219e-21)
(0.0460114 -0.000109595 -2.86997e-19)
(0.0721239 -0.000127846 1.19494e-18)
(0.0414256 -8.44809e-05 -1.48097e-19)
(0.0454699 -9.24111e-05 -7.86811e-19)
(0.045137 -9.33001e-05 -2.04938e-19)
(0.0451768 -9.48667e-05 4.47173e-19)
(0.0455984 -9.55221e-05 -7.47672e-20)
(0.0719051 -0.00013533 -4.08803e-19)
(0.0411279 -7.97536e-05 5.25636e-20)
(0.0451681 -8.84229e-05 -3.61214e-19)
(0.0448318 -8.91165e-05 4.14473e-19)
(0.0448675 -9.05275e-05 6.6051e-19)
(0.0452867 -9.11671e-05 -9.45887e-20)
(0.0711851 -0.000139819 -4.88302e-19)
(0.0408111 -9.30022e-05 6.92104e-20)
(0.0447851 -0.00010029 -4.79044e-21)
(0.0444479 -0.000101349 6.91364e-19)
(0.0444768 -0.000102969 6.84851e-19)
(0.0448933 -0.000103692 6.52067e-21)
(0.0701521 -2.59585e-05 -4.88182e-20)
(0.040646 -0.00013252 4.6188e-21)
(0.0444137 -0.00011478 -3.07628e-22)
(0.0440976 -0.000118806 4.31069e-19)
(0.0441187 -0.000120434 -6.41043e-20)
(0.0441189 -0.000122313 5.90186e-21)
(0.0445341 -0.00012318 -3.48816e-19)
)
;

boundaryField
{
    inlet
    {
        type            calculated;
        value           nonuniform List<vector> 0();
    }
    outlet2
    {
        type            calculated;
        value           uniform (0.0741049 0 0);
    }
    outlet1
    {
        type            calculated;
        value           uniform (0.0741049 0 0);
    }
    wall
    {
        type            calculated;
        value           uniform (0.0741049 0 0);
    }
    symmetryBottom
    {
        type            symmetry;
    }
    symmetryZ0
    {
        type            symmetry;
    }
    symmetryZ05
    {
        type            symmetry;
    }
    procBoundary0to1
    {
        type            processor;
        value           uniform (0.0741049 0 0);
    }
}


// ************************************************************************* //
