/*--------------------------------*- C++ -*----------------------------------*\
| =========                 |                                                 |
| \\      /  F ield         | OpenFOAM: The Open Source CFD Toolbox           |
|  \\    /   O peration     | Version:  2412                                  |
|   \\  /    A nd           | Website:  www.openfoam.com                      |
|    \\/     M anipulation  |                                                 |
\*---------------------------------------------------------------------------*/
FoamFile
{
    version     2.0;
    format      ascii;
    arch        "LSB;label=32;scalar=64";
    class       volScalarField;
    location    "9e-06";
    object      E;
}
// * * * * * * * * * * * * * * * * * * * * * * * * * * * * * * * * * * * * * //

dimensions      [0 0 0 0 0 0 0];

internalField   nonuniform List<scalar> 
84
(
102.014
52.8432
56.4002
56.2457
56.2693
56.2895
56.2592
56.9307
109.025
56.5649
60.4195
60.3165
60.4052
60.492
60.5335
61.2414
107.608
56.6398
59.9178
59.8582
59.9377
60.0179
60.0522
60.7559
106.449
55.7842
59.5035
59.3932
59.471
59.4954
60.1944
106.518
55.2263
58.9799
58.859
58.928
58.9428
59.6372
105.621
54.7424
58.4576
58.3297
58.3899
58.3953
59.0851
104.717
54.2655
57.9396
57.8051
57.8566
57.8528
58.538
103.547
54.0141
57.4056
57.2862
57.3281
57.3153
57.996
102.546
53.372
56.9416
56.7983
56.7829
57.4589
102.096
52.8666
56.4309
56.2794
56.2553
56.9267
101.155
52.4024
55.9229
55.7652
55.7324
56.3994
99.3869
52.0584
55.4092
55.2519
55.2621
55.2146
55.8773
)
;

boundaryField
{
    inlet
    {
        type            calculated;
        value           nonuniform List<scalar> 0();
    }
    outlet2
    {
        type            calculated;
        value           uniform 0;
    }
    outlet1
    {
        type            calculated;
        value           uniform 0;
    }
    wall
    {
        type            calculated;
        value           uniform 0;
    }
    symmetryBottom
    {
        type            symmetry;
    }
    symmetryZ0
    {
        type            symmetry;
    }
    symmetryZ05
    {
        type            symmetry;
    }
    procBoundary0to1
    {
        type            processor;
        value           uniform 0;
    }
}


// ************************************************************************* //
