/*--------------------------------*- C++ -*----------------------------------*\
| =========                 |                                                 |
| \\      /  F ield         | OpenFOAM: The Open Source CFD Toolbox           |
|  \\    /   O peration     | Version:  2412                                  |
|   \\  /    A nd           | Website:  www.openfoam.com                      |
|    \\/     M anipulation  |                                                 |
\*---------------------------------------------------------------------------*/
FoamFile
{
    version     2.0;
    format      ascii;
    arch        "LSB;label=32;scalar=64";
    class       volScalarField;
    location    "9.8e-06";
    object      E;
}
// * * * * * * * * * * * * * * * * * * * * * * * * * * * * * * * * * * * * * //

dimensions      [0 0 0 0 0 0 0];

internalField   nonuniform List<scalar> 
84
(
120.868
4.06852
15.0587
120.913
4.16423
14.3084
120.941
4.15554
14.4043
120.943
4.1439
14.5021
120.944
4.13229
14.5998
120.945
4.12073
14.6969
120.946
4.10922
14.7934
120.947
4.09776
14.8893
120.949
4.08636
14.9847
120.95
4.075
15.0794
120.951
4.06365
15.1736
120.953
4.05221
15.2672
57.2298
53.3187
50.2332
61.574
57.2187
53.8961
61.0817
56.775
53.5427
60.5222
56.0863
57.0331
47.305
59.9601
55.6069
56.0836
52.5009
59.4037
55.1103
55.565
52.1009
58.8524
54.6178
55.0588
51.6303
58.3059
54.1297
54.5558
51.19
57.7641
53.651
53.8996
54.2714
48.1442
57.2273
53.171
53.419
53.5762
50.2333
56.6953
52.6955
52.9333
53.0743
49.846
56.1684
52.2202
52.592
49.4129
)
;

boundaryField
{
    inlet
    {
        type            calculated;
        value           uniform 0;
    }
    outlet2
    {
        type            calculated;
        value           uniform 0;
    }
    outlet1
    {
        type            calculated;
        value           nonuniform List<scalar> 0();
    }
    wall
    {
        type            calculated;
        value           uniform 0;
    }
    symmetryBottom
    {
        type            symmetry;
    }
    symmetryZ0
    {
        type            symmetry;
    }
    symmetryZ05
    {
        type            symmetry;
    }
    procBoundary1to0
    {
        type            processor;
        value           uniform 0;
    }
}


// ************************************************************************* //
