/*--------------------------------*- C++ -*----------------------------------*\
| =========                 |                                                 |
| \\      /  F ield         | OpenFOAM: The Open Source CFD Toolbox           |
|  \\    /   O peration     | Version:  2412                                  |
|   \\  /    A nd           | Website:  www.openfoam.com                      |
|    \\/     M anipulation  |                                                 |
\*---------------------------------------------------------------------------*/
FoamFile
{
    version     2.0;
    format      ascii;
    arch        "LSB;label=32;scalar=64";
    class       volVectorField;
    location    "9.8e-06";
    object      rhoU_dof0;
}
// * * * * * * * * * * * * * * * * * * * * * * * * * * * * * * * * * * * * * //

dimensions      [0 0 0 0 0 0 0];

internalField   nonuniform List<vector> 
84
(
(0.0899268 2.07192e-07 -4.22869e-21)
(0.00327757 -4.69783e-07 2.70032e-20)
(0.0113829 2.07428e-07 -1.22202e-19)
(0.0899601 -0.000279356 -4.47438e-21)
(0.00334834 -2.08409e-05 2.8449e-20)
(0.0108267 -4.22973e-05 -1.28048e-19)
(0.089981 -0.000279422 5.8782e-21)
(0.00334204 -2.08801e-05 -3.72994e-20)
(0.0108977 -4.20285e-05 1.66662e-19)
(0.0899819 -0.000279435 -7.67693e-21)
(0.00333349 -2.0851e-05 4.87752e-20)
(0.0109699 -4.22853e-05 -2.2031e-19)
(0.0899828 -0.000279438 -1.3612e-20)
(0.00332495 -2.08203e-05 8.56459e-20)
(0.0110421 -4.25482e-05 -3.78422e-19)
(0.0899836 -0.000279441 7.4559e-21)
(0.00331646 -2.07899e-05 -4.70086e-20)
(0.0111138 -4.28079e-05 2.09143e-19)
(0.0899845 -0.000279444 -9.99916e-21)
(0.003308 -2.07596e-05 6.33617e-20)
(0.0111852 -4.30661e-05 -2.82769e-19)
(0.0899854 -0.000279447 -1.16036e-20)
(0.00329958 -2.07294e-05 7.35195e-20)
(0.011256 -4.33227e-05 -3.31597e-19)
(0.0899862 -0.00027945 4.31398e-21)
(0.00329119 -2.06993e-05 -2.72124e-20)
(0.0113265 -4.35779e-05 1.21289e-19)
(0.0899871 -0.000279453 -9.88955e-21)
(0.00328284 -2.06694e-05 6.337e-20)
(0.0113966 -4.38315e-05 -2.88363e-19)
(0.089988 -0.000279456 -2.55992e-20)
(0.0032745 -2.06394e-05 1.63149e-19)
(0.0114662 -4.40836e-05 -7.36599e-19)
(0.0899893 -0.000279711 1.01203e-23)
(0.00326609 -2.02033e-05 -1.80317e-22)
(0.0115353 -4.40333e-05 2.51737e-21)
(0.0427676 -3.35884e-06 -2.77512e-21)
(0.0398758 -3.15962e-06 1.99455e-19)
(0.0376023 -3.01655e-06 -3.10563e-20)
(0.0460008 -0.000171354 -2.2341e-21)
(0.0427808 -0.000162444 2.01917e-19)
(0.0403327 -0.00015248 -3.57735e-20)
(0.045635 -0.000173277 -1.19648e-20)
(0.0424508 -0.000164107 -6.96113e-20)
(0.040069 -0.000156451 -2.75039e-19)
(0.0452194 -0.00017181 2.34705e-20)
(0.0419407 -0.000161359 -3.80692e-21)
(0.0426381 -0.000181784 -3.12836e-20)
(0.0354374 5.42252e-05 3.98141e-19)
(0.0448019 -0.000170233 -5.28244e-20)
(0.0415841 -0.000160708 2.47306e-21)
(0.0419344 -0.000164958 -3.00038e-20)
(0.039295 -0.000149702 3.4627e-19)
(0.0443886 -0.000168697 -7.3161e-21)
(0.0412149 -0.000159332 -1.98624e-19)
(0.041549 -0.000163094 -7.64607e-21)
(0.038997 -0.000152355 2.3496e-19)
(0.043979 -0.000167174 2.97139e-20)
(0.0408487 -0.000157946 -4.22339e-21)
(0.0411726 -0.000161643 -1.65211e-21)
(0.0386468 -0.000151073 -3.24729e-23)
(0.0435731 -0.000165665 5.27196e-20)
(0.0404857 -0.000156575 -2.17408e-19)
(0.0407988 -0.000160118 2.09449e-19)
(0.0383188 -0.000151693 1.15033e-21)
(0.0431706 -0.000164167 1.08455e-20)
(0.0401296 -0.000155263 -2.68322e-19)
(0.0403126 -0.000157363 -2.83673e-19)
(0.0405864 -0.000176506 1.62182e-19)
(0.0360566 5.29627e-05 1.84669e-18)
(0.0427718 -0.000162685 5.53859e-20)
(0.0397727 -0.000153884 -3.03761e-19)
(0.0399552 -0.000156718 1.83778e-19)
(0.0400704 -0.000159844 4.40158e-19)
(0.0376071 -0.00014761 3.04568e-19)
(0.0423765 -0.000161214 8.03851e-20)
(0.0394191 -0.000152543 -5.2336e-21)
(0.039594 -0.000155409 -2.5064e-23)
(0.0396973 -0.000156757 2.12428e-20)
(0.0373184 -0.000165908 -2.41521e-19)
(0.041985 -0.000159736 -2.37294e-20)
(0.0390656 -0.000151146 2.94038e-19)
(0.0393386 -0.000153532 1.45499e-20)
(0.0369958 -0.000165007 -4.75381e-19)
)
;

boundaryField
{
    inlet
    {
        type            calculated;
        value           uniform (0.0741049 0 0);
    }
    outlet2
    {
        type            calculated;
        value           uniform (0.0741049 0 0);
    }
    outlet1
    {
        type            calculated;
        value           nonuniform List<vector> 0();
    }
    wall
    {
        type            calculated;
        value           uniform (0.0741049 0 0);
    }
    symmetryBottom
    {
        type            symmetry;
    }
    symmetryZ0
    {
        type            symmetry;
    }
    symmetryZ05
    {
        type            symmetry;
    }
    procBoundary1to0
    {
        type            processor;
        value           uniform (0.0741049 0 0);
    }
}


// ************************************************************************* //
