/*--------------------------------*- C++ -*----------------------------------*\
| =========                 |                                                 |
| \\      /  F ield         | OpenFOAM: The Open Source CFD Toolbox           |
|  \\    /   O peration     | Version:  2412                                  |
|   \\  /    A nd           | Website:  www.openfoam.com                      |
|    \\/     M anipulation  |                                                 |
\*---------------------------------------------------------------------------*/
FoamFile
{
    version     2.0;
    format      ascii;
    arch        "LSB;label=32;scalar=64";
    class       volScalarField;
    location    "7e-06";
    object      rho;
}
// * * * * * * * * * * * * * * * * * * * * * * * * * * * * * * * * * * * * * //

dimensions      [0 0 0 0 0 0 0];

internalField   nonuniform List<scalar> 
84
(
2.81113e-05
4.16926e-06
1.01593e-05
2.81225e-05
4.17663e-06
1.01668e-05
2.81197e-05
4.17572e-06
1.01654e-05
2.81197e-05
4.17572e-06
1.01654e-05
2.81197e-05
4.17572e-06
1.01654e-05
2.81197e-05
4.17572e-06
1.01654e-05
2.81197e-05
4.17572e-06
1.01654e-05
2.81197e-05
4.17572e-06
1.01654e-05
2.81197e-05
4.17572e-06
1.01654e-05
2.81197e-05
4.17572e-06
1.01654e-05
2.81197e-05
4.17571e-06
1.01654e-05
2.81197e-05
4.17395e-06
1.01646e-05
1.90806e-05
1.78501e-05
1.80788e-05
2.0355e-05
1.89657e-05
1.92149e-05
2.02187e-05
1.88462e-05
1.90917e-05
2.00831e-05
1.87275e-05
1.88538e-05
1.77961e-05
1.99481e-05
1.86093e-05
1.87323e-05
1.88597e-05
1.98131e-05
1.84911e-05
1.86108e-05
1.87377e-05
1.96784e-05
1.83734e-05
1.84897e-05
1.86161e-05
1.95466e-05
1.82581e-05
1.83713e-05
1.84961e-05
1.94069e-05
1.8136e-05
1.82456e-05
1.82448e-05
1.7866e-05
1.92902e-05
1.80334e-05
1.81403e-05
1.8138e-05
1.82676e-05
1.91546e-05
1.79147e-05
1.80183e-05
1.80148e-05
1.81873e-05
1.90279e-05
1.78035e-05
1.79042e-05
1.80274e-05
)
;

boundaryField
{
    inlet
    {
        type            calculated;
        value           uniform 0;
    }
    outlet2
    {
        type            calculated;
        value           uniform 0;
    }
    outlet1
    {
        type            calculated;
        value           nonuniform List<scalar> 0();
    }
    wall
    {
        type            calculated;
        value           uniform 0;
    }
    symmetryBottom
    {
        type            symmetry;
    }
    symmetryZ0
    {
        type            symmetry;
    }
    symmetryZ05
    {
        type            symmetry;
    }
    procBoundary1to0
    {
        type            processor;
        value           uniform 0;
    }
}


// ************************************************************************* //
