/*--------------------------------*- C++ -*----------------------------------*\
| =========                 |                                                 |
| \\      /  F ield         | OpenFOAM: The Open Source CFD Toolbox           |
|  \\    /   O peration     | Version:  2412                                  |
|   \\  /    A nd           | Website:  www.openfoam.com                      |
|    \\/     M anipulation  |                                                 |
\*---------------------------------------------------------------------------*/
FoamFile
{
    version     2.0;
    format      ascii;
    arch        "LSB;label=32;scalar=64";
    class       volVectorField;
    location    "7e-06";
    object      U;
}
// * * * * * * * * * * * * * * * * * * * * * * * * * * * * * * * * * * * * * //

dimensions      [0 0 0 0 0 0 0];

internalField   nonuniform List<vector> 
84
(
(2636.39 -0.026149 0)
(2568.06 -0.163391 0)
(2623.71 -0.0575331 -1.14511e-14)
(2636.39 -5.30578 0)
(2568.13 -8.98963 0)
(2623.71 -6.8699 -1.12881e-14)
(2636.39 -5.28118 0)
(2568.13 -8.94125 0)
(2623.71 -6.83564 1.53585e-14)
(2636.39 -5.28118 0)
(2568.13 -8.94123 0)
(2623.71 -6.83564 -2.09828e-14)
(2636.39 -5.28118 0)
(2568.13 -8.94123 0)
(2623.71 -6.83564 -3.20294e-14)
(2636.39 -5.28118 0)
(2568.13 -8.94123 0)
(2623.71 -6.83564 2.0658e-14)
(2636.39 -5.28118 0)
(2568.13 -8.94123 0)
(2623.71 -6.83564 -2.36702e-14)
(2636.39 -5.28118 0)
(2568.13 -8.94123 0)
(2623.71 -6.83564 -2.68081e-14)
(2636.39 -5.28118 0)
(2568.13 -8.94123 0)
(2623.71 -6.83564 1.14394e-14)
(2636.39 -5.28118 0)
(2568.13 -8.94123 0)
(2623.71 -6.83564 -2.36808e-14)
(2636.39 -5.28118 0)
(2568.13 -8.94012 0)
(2623.71 -6.83543 -6.29948e-14)
(2636.39 -5.2818 0)
(2568.11 -8.83671 0)
(2623.71 -6.81661 0)
(2629.54 7.39267 9.2602e-16)
(2627.64 6.91146 8.55767e-15)
(2628.03 6.95028 8.91022e-16)
(2632.03 -7.1348 8.36926e-16)
(2629.97 -7.24803 8.80473e-15)
(2630.38 -7.23192 -2.68149e-16)
(2631.92 -7.13789 -1.17468e-15)
(2629.87 -7.2492 -4.24635e-15)
(2630.27 -7.22406 -1.31505e-14)
(2631.81 -7.13942 1.54009e-15)
(2629.77 -7.25052 -2.71615e-16)
(2630.06 -7.351 2.18949e-17)
(2629.04 0.676235 1.18303e-14)
(2631.7 -7.14361 -1.62035e-15)
(2629.67 -7.25426 6.88887e-17)
(2629.96 -7.3549 -1.35323e-16)
(2630.07 -7.34134 1.12635e-14)
(2631.55 -6.88704 -1.53546e-15)
(2629.54 -7.01718 -8.64522e-15)
(2629.82 -7.11497 7.5333e-16)
(2629.93 -7.10196 9.59746e-15)
(2631.29 -5.44357 1.80108e-15)
(2629.27 -5.6599 -2.33833e-16)
(2629.55 -5.72865 1.853e-17)
(2629.66 -5.71871 -7.59174e-17)
(2631.12 -4.57438 2.19598e-15)
(2629.08 -4.84096 -8.89043e-15)
(2629.36 -4.89376 9.88209e-15)
(2629.47 -4.87842 1.55859e-16)
(2630.9 -3.99634 -8.84243e-16)
(2628.76 -4.2974 -1.17193e-14)
(2629.06 -4.33673 -1.12011e-14)
(2629.03 -4.40083 1.29854e-14)
(2629.01 0.708128 7.53567e-14)
(2631.07 -3.87292 1.92245e-15)
(2629.18 -4.18309 -1.21202e-14)
(2629.44 -4.21703 9.88228e-15)
(2629.42 -4.2772 1.61183e-14)
(2629.56 -4.30796 1.11782e-14)
(2630.97 -4.4931 4.90272e-15)
(2629.04 -4.76209 -4.18325e-16)
(2629.3 -4.81 3.9633e-17)
(2629.28 -4.88658 -3.12504e-17)
(2629.44 -5.32393 -1.1985e-14)
(2630.89 -5.49582 9.11473e-18)
(2628.97 -5.69648 1.20951e-14)
(2629.23 -5.76462 -1.48214e-15)
(2629.34 -5.75118 -1.64384e-14)
)
;

boundaryField
{
    inlet
    {
        type            calculated;
        value           uniform (0 0 0);
    }
    outlet2
    {
        type            calculated;
        value           uniform (0 0 0);
    }
    outlet1
    {
        type            calculated;
        value           nonuniform List<vector> 0();
    }
    wall
    {
        type            calculated;
        value           uniform (0 0 0);
    }
    symmetryBottom
    {
        type            symmetry;
    }
    symmetryZ0
    {
        type            symmetry;
    }
    symmetryZ05
    {
        type            symmetry;
    }
    procBoundary1to0
    {
        type            processor;
        value           uniform (0 0 0);
    }
}


// ************************************************************************* //
