/*--------------------------------*- C++ -*----------------------------------*\
| =========                 |                                                 |
| \\      /  F ield         | OpenFOAM: The Open Source CFD Toolbox           |
|  \\    /   O peration     | Version:  2412                                  |
|   \\  /    A nd           | Website:  www.openfoam.com                      |
|    \\/     M anipulation  |                                                 |
\*---------------------------------------------------------------------------*/
FoamFile
{
    version     2.0;
    format      ascii;
    arch        "LSB;label=32;scalar=64";
    class       volScalarField;
    location    "5.9e-06";
    object      E_dof0;
}
// * * * * * * * * * * * * * * * * * * * * * * * * * * * * * * * * * * * * * //

dimensions      [0 0 0 0 0 0 0];

internalField   nonuniform List<scalar> 
84
(
99.4381
24.4461
40.6443
99.4677
24.4708
40.6677
99.4602
24.4676
40.6635
99.4602
24.4676
40.6635
99.4602
24.4676
40.6635
99.4602
24.4676
40.6635
99.4602
24.4676
40.6635
99.4602
24.4676
40.6635
99.4602
24.4676
40.6635
99.4602
24.4676
40.6635
99.4602
24.4676
40.6634
99.4604
24.462
40.6605
70.9601
67.5292
68.169
75.0113
71.1718
71.8599
74.5852
70.7885
71.4673
74.1611
70.4072
70.7121
67.3753
73.7386
70.0274
70.3232
70.7329
73.3183
69.6494
69.9362
70.3444
72.9079
69.2798
69.558
69.9646
72.5076
68.9191
69.189
69.5917
72.1392
68.5836
68.8462
68.8524
67.5484
71.6283
68.1327
68.3836
68.3832
68.7925
71.2361
67.7785
68.0213
68.0171
68.5408
70.8431
67.4241
67.6589
68.0567
)
;

boundaryField
{
    inlet
    {
        type            calculated;
        value           uniform 99.4306;
    }
    outlet2
    {
        type            calculated;
        value           uniform 99.4306;
    }
    outlet1
    {
        type            calculated;
        value           nonuniform List<scalar> 0();
    }
    wall
    {
        type            calculated;
        value           uniform 99.4306;
    }
    symmetryBottom
    {
        type            symmetry;
    }
    symmetryZ0
    {
        type            symmetry;
    }
    symmetryZ05
    {
        type            symmetry;
    }
    procBoundary1to0
    {
        type            processor;
        value           uniform 99.4306;
    }
}


// ************************************************************************* //
