/*--------------------------------*- C++ -*----------------------------------*\
| =========                 |                                                 |
| \\      /  F ield         | OpenFOAM: The Open Source CFD Toolbox           |
|  \\    /   O peration     | Version:  2412                                  |
|   \\  /    A nd           | Website:  www.openfoam.com                      |
|    \\/     M anipulation  |                                                 |
\*---------------------------------------------------------------------------*/
FoamFile
{
    version     2.0;
    format      ascii;
    arch        "LSB;label=32;scalar=64";
    class       volScalarField;
    location    "8.3e-06";
    object      rho;
}
// * * * * * * * * * * * * * * * * * * * * * * * * * * * * * * * * * * * * * //

dimensions      [0 0 0 0 0 0 0];

internalField   nonuniform List<scalar> 
84
(
2.68603e-05
1.5067e-05
1.66596e-05
1.65193e-05
1.65307e-05
1.65322e-05
1.65343e-05
1.66951e-05
2.89114e-05
1.62489e-05
1.7978e-05
1.78476e-05
1.78805e-05
1.79034e-05
1.79277e-05
1.80987e-05
2.84631e-05
1.6352e-05
1.77962e-05
1.77074e-05
1.77337e-05
1.77544e-05
1.77761e-05
1.79461e-05
2.83144e-05
1.60223e-05
1.77105e-05
1.75786e-05
1.76072e-05
1.76258e-05
1.77947e-05
2.82814e-05
1.58768e-05
1.75684e-05
1.74341e-05
1.74603e-05
1.74765e-05
1.76443e-05
2.80593e-05
1.57488e-05
1.74252e-05
1.72897e-05
1.73134e-05
1.73271e-05
1.74939e-05
2.78358e-05
1.5623e-05
1.72822e-05
1.71459e-05
1.71671e-05
1.71784e-05
1.7344e-05
2.75004e-05
1.56274e-05
1.71219e-05
1.70081e-05
1.70248e-05
1.70339e-05
1.71985e-05
2.72969e-05
1.53801e-05
1.69995e-05
1.68615e-05
1.68778e-05
1.70408e-05
2.72125e-05
1.52607e-05
1.68796e-05
1.67401e-05
1.67548e-05
1.69169e-05
2.69287e-05
1.51408e-05
1.67319e-05
1.65923e-05
1.66044e-05
1.67654e-05
2.65252e-05
1.50806e-05
1.6588e-05
1.64575e-05
1.64665e-05
1.64665e-05
1.6627e-05
)
;

boundaryField
{
    inlet
    {
        type            calculated;
        value           nonuniform List<scalar> 0();
    }
    outlet2
    {
        type            calculated;
        value           uniform 0;
    }
    outlet1
    {
        type            calculated;
        value           uniform 0;
    }
    wall
    {
        type            calculated;
        value           uniform 0;
    }
    symmetryBottom
    {
        type            symmetry;
    }
    symmetryZ0
    {
        type            symmetry;
    }
    symmetryZ05
    {
        type            symmetry;
    }
    procBoundary0to1
    {
        type            processor;
        value           uniform 0;
    }
}


// ************************************************************************* //
