/*--------------------------------*- C++ -*----------------------------------*\
| =========                 |                                                 |
| \\      /  F ield         | OpenFOAM: The Open Source CFD Toolbox           |
|  \\    /   O peration     | Version:  2412                                  |
|   \\  /    A nd           | Website:  www.openfoam.com                      |
|    \\/     M anipulation  |                                                 |
\*---------------------------------------------------------------------------*/
FoamFile
{
    version     2.0;
    format      ascii;
    arch        "LSB;label=32;scalar=64";
    class       volScalarField;
    location    "8.3e-06";
    object      T;
}
// * * * * * * * * * * * * * * * * * * * * * * * * * * * * * * * * * * * * * //

dimensions      [0 0 0 0 0 0 0];

internalField   nonuniform List<scalar> 
84
(
205.05
205.071
205.289
205.345
205.431
205.516
205.604
205.592
199.963
199.879
200.018
199.994
199.997
199.996
199.996
199.997
199.93
199.88
200.015
199.994
199.996
199.996
199.996
199.997
199.98
199.871
200.019
199.993
199.996
199.996
199.997
199.976
199.878
200.028
200.002
200.006
200.006
200.007
200.574
200.543
200.676
200.654
200.659
200.661
200.66
204.453
204.572
204.739
204.789
204.865
204.94
204.928
207.827
208.577
208.546
208.699
208.838
208.983
208.96
222.195
226.733
226.517
227.08
227.617
227.517
190.743
190.533
190.533
190.35
190.192
190.216
197.583
197.672
197.729
197.669
197.632
197.639
199.722
198.855
199.081
199.034
199.021
199.004
199.008
)
;

boundaryField
{
    inlet
    {
        type            calculated;
        value           nonuniform List<scalar> 0();
    }
    outlet2
    {
        type            calculated;
        value           uniform 0;
    }
    outlet1
    {
        type            calculated;
        value           uniform 0;
    }
    wall
    {
        type            calculated;
        value           uniform 0;
    }
    symmetryBottom
    {
        type            symmetry;
    }
    symmetryZ0
    {
        type            symmetry;
    }
    symmetryZ05
    {
        type            symmetry;
    }
    procBoundary0to1
    {
        type            processor;
        value           uniform 0;
    }
}


// ************************************************************************* //
