/*--------------------------------*- C++ -*----------------------------------*\
| =========                 |                                                 |
| \\      /  F ield         | OpenFOAM: The Open Source CFD Toolbox           |
|  \\    /   O peration     | Version:  2412                                  |
|   \\  /    A nd           | Website:  www.openfoam.com                      |
|    \\/     M anipulation  |                                                 |
\*---------------------------------------------------------------------------*/
FoamFile
{
    version     2.0;
    format      ascii;
    arch        "LSB;label=32;scalar=64";
    class       volVectorField;
    location    "8.3e-06";
    object      U;
}
// * * * * * * * * * * * * * * * * * * * * * * * * * * * * * * * * * * * * * //

dimensions      [0 0 0 0 0 0 0];

internalField   nonuniform List<vector> 
84
(
(2633.36 8.36846 8.82709e-15)
(2622.85 8.52605 -1.39959e-14)
(2626.62 8.63438 -1.93854e-14)
(2626.15 8.75807 1.27738e-14)
(2626.17 8.88415 -2.6979e-15)
(2626.14 9.01396 1.92896e-15)
(2626.11 9.1476 1.87815e-14)
(2626.29 9.12803 1.43667e-15)
(2636.1 -8.70491 7.85503e-15)
(2625.83 -9.05824 -1.29756e-14)
(2629.56 -9.0881 -2.42335e-14)
(2629.15 -9.23875 4.11711e-15)
(2629.21 -9.37859 -4.56832e-14)
(2629.22 -9.52416 1.23883e-14)
(2629.24 -9.67423 3.65431e-14)
(2629.41 -9.65035 5.73907e-15)
(2635.78 -7.68229 -3.12487e-14)
(2626.26 -10.7565 1.22125e-14)
(2629.32 -8.83042 1.22676e-14)
(2629.03 -9.26577 -2.29466e-15)
(2629.07 -9.3787 -8.11605e-16)
(2629.09 -9.52616 1.75812e-14)
(2629.11 -9.67619 -1.53701e-14)
(2629.28 -9.6523 -1.63222e-14)
(2635.7 -8.06847 -2.95745e-14)
(2625.63 -9.27941 2.43336e-14)
(2629.32 -9.228 -3.30595e-15)
(2628.91 -9.38334 -4.08554e-14)
(2628.96 -9.52801 4.22474e-14)
(2628.97 -9.67826 5.85787e-15)
(2629.14 -9.65434 -1.51707e-14)
(2635.76 -8.86494 -1.66068e-14)
(2625.44 -9.15794 -6.96073e-15)
(2629.2 -9.24139 1.08426e-15)
(2628.77 -9.38884 3.30768e-16)
(2628.83 -9.53411 -1.35906e-14)
(2628.84 -9.68451 1.22791e-14)
(2629.01 -9.66056 2.6468e-14)
(2635.61 -8.63637 -1.18964e-14)
(2625.26 -8.90073 2.55831e-14)
(2629.03 -8.99338 -3.50141e-15)
(2628.6 -9.14038 2.73224e-14)
(2628.65 -9.28629 -2.59525e-14)
(2628.66 -9.43745 2.16191e-14)
(2628.83 -9.41393 -4.45166e-14)
(2635.33 -6.93927 -5.29071e-18)
(2624.88 -7.18641 2.26794e-14)
(2628.67 -7.23467 -3.29018e-15)
(2628.24 -7.35674 2.27422e-16)
(2628.28 -7.47348 2.24688e-14)
(2628.29 -7.59485 1.92188e-15)
(2628.46 -7.57601 2.18823e-14)
(2635.07 -4.99849 3.82889e-16)
(2624.87 -7.61949 5.58043e-16)
(2628.37 -5.98567 -1.78834e-16)
(2627.99 -6.33664 -4.50814e-16)
(2628.02 -6.4158 -7.66791e-17)
(2628.02 -6.52386 2.31532e-16)
(2628.2 -6.50723 -1.67056e-14)
(2634.77 -4.83289 4.48939e-14)
(2624.11 -5.56383 -1.03084e-14)
(2627.97 -5.54344 -4.6962e-14)
(2627.51 -5.63805 -1.20879e-14)
(2627.55 -5.72773 2.70013e-14)
(2627.73 -5.71381 -4.65266e-15)
(2635.02 -5.1368 -1.5525e-14)
(2624.9 -5.27485 3.67961e-15)
(2628.57 -5.33023 -2.1743e-14)
(2628.15 -5.41162 2.52778e-14)
(2628.19 -5.4928 3.96231e-14)
(2628.36 -5.4803 -5.85542e-15)
(2634.94 -5.34878 -1.84534e-14)
(2624.66 -6.21985 4.84556e-15)
(2628.37 -6.10164 -3.19995e-16)
(2627.94 -6.21407 4.20664e-14)
(2627.98 -6.30913 4.15161e-14)
(2628.15 -6.29433 1.21673e-16)
(2634.79 -1.03845 -1.93609e-15)
(2624.61 -8.96988 3.35645e-16)
(2628.27 -7.0275 -2.11682e-17)
(2627.84 -7.34263 2.67258e-14)
(2627.88 -7.43779 -4.11396e-15)
(2627.88 -7.55382 3.93757e-16)
(2628.05 -7.53629 -2.12493e-14)
)
;

boundaryField
{
    inlet
    {
        type            calculated;
        value           nonuniform List<vector> 0();
    }
    outlet2
    {
        type            calculated;
        value           uniform (0 0 0);
    }
    outlet1
    {
        type            calculated;
        value           uniform (0 0 0);
    }
    wall
    {
        type            calculated;
        value           uniform (0 0 0);
    }
    symmetryBottom
    {
        type            symmetry;
    }
    symmetryZ0
    {
        type            symmetry;
    }
    symmetryZ05
    {
        type            symmetry;
    }
    procBoundary0to1
    {
        type            processor;
        value           uniform (0 0 0);
    }
}


// ************************************************************************* //
