/*--------------------------------*- C++ -*----------------------------------*\
| =========                 |                                                 |
| \\      /  F ield         | OpenFOAM: The Open Source CFD Toolbox           |
|  \\    /   O peration     | Version:  2412                                  |
|   \\  /    A nd           | Website:  www.openfoam.com                      |
|    \\/     M anipulation  |                                                 |
\*---------------------------------------------------------------------------*/
FoamFile
{
    version     2.0;
    format      ascii;
    arch        "LSB;label=32;scalar=64";
    class       volScalarField;
    location    "4.7e-06";
    object      E_dof0;
}
// * * * * * * * * * * * * * * * * * * * * * * * * * * * * * * * * * * * * * //

dimensions      [0 0 0 0 0 0 0];

internalField   nonuniform List<scalar> 
84
(
99.4356
36.9501
47.8441
99.4555
36.9716
47.8636
99.4504
36.9689
47.8604
99.4504
36.9689
47.8604
99.4504
36.9689
47.8604
99.4504
36.9689
47.8604
99.4504
36.9689
47.8604
99.4504
36.9689
47.8604
99.4504
36.9689
47.8604
99.4504
36.9689
47.8604
99.4504
36.9688
47.8604
99.4506
36.964
47.8573
75.4955
73.1072
73.5759
78.8907
76.2497
76.7453
78.5365
75.9217
76.4118
78.1837
75.5951
75.7728
72.9681
77.8319
75.2694
75.4406
75.7897
77.4821
74.9456
75.1104
75.4584
77.1404
74.6289
74.7875
75.1344
76.8058
74.3187
74.4712
74.8155
76.5
74.0329
74.1801
74.1906
73.0836
76.0671
73.6378
73.7767
73.7814
74.128
75.7412
73.3351
73.4682
73.4692
73.8908
75.41
73.0278
73.1551
73.4959
)
;

boundaryField
{
    inlet
    {
        type            calculated;
        value           uniform 99.4306;
    }
    outlet2
    {
        type            calculated;
        value           uniform 99.4306;
    }
    outlet1
    {
        type            calculated;
        value           nonuniform List<scalar> 0();
    }
    wall
    {
        type            calculated;
        value           uniform 99.4306;
    }
    symmetryBottom
    {
        type            symmetry;
    }
    symmetryZ0
    {
        type            symmetry;
    }
    symmetryZ05
    {
        type            symmetry;
    }
    procBoundary1to0
    {
        type            processor;
        value           uniform 99.4306;
    }
}


// ************************************************************************* //
