/*--------------------------------*- C++ -*----------------------------------*\
| =========                 |                                                 |
| \\      /  F ield         | OpenFOAM: The Open Source CFD Toolbox           |
|  \\    /   O peration     | Version:  2412                                  |
|   \\  /    A nd           | Website:  www.openfoam.com                      |
|    \\/     M anipulation  |                                                 |
\*---------------------------------------------------------------------------*/
FoamFile
{
    version     2.0;
    format      ascii;
    arch        "LSB;label=32;scalar=64";
    class       volScalarField;
    location    "1.9e-06";
    object      T;
}
// * * * * * * * * * * * * * * * * * * * * * * * * * * * * * * * * * * * * * //

dimensions      [0 0 0 0 0 0 0];

internalField   nonuniform List<scalar> 
84
(
201.154
201.177
201.198
201.216
201.235
201.254
201.274
201.273
199.997
199.996
200
200
200
200
200
200
199.995
199.997
200
200
200
200
200
200
199.997
199.996
200
200
200
200
200
199.998
199.997
200
200
200
200
200
200.213
200.22
200.227
200.229
200.233
200.236
200.236
201.04
201.072
201.09
201.107
201.124
201.142
201.141
201.801
201.879
201.902
201.931
201.961
201.993
201.991
204.772
205.066
205.142
205.224
205.309
205.305
198.012
197.959
197.932
197.899
197.865
197.867
199.514
199.513
199.509
199.501
199.493
199.493
199.981
199.794
199.798
199.794
199.791
199.788
199.788
)
;

boundaryField
{
    inlet
    {
        type            calculated;
        value           nonuniform List<scalar> 0();
    }
    outlet2
    {
        type            calculated;
        value           uniform 0;
    }
    outlet1
    {
        type            calculated;
        value           uniform 0;
    }
    wall
    {
        type            calculated;
        value           uniform 0;
    }
    symmetryBottom
    {
        type            symmetry;
    }
    symmetryZ0
    {
        type            symmetry;
    }
    symmetryZ05
    {
        type            symmetry;
    }
    procBoundary0to1
    {
        type            processor;
        value           uniform 0;
    }
}


// ************************************************************************* //
