/*--------------------------------*- C++ -*----------------------------------*\
| =========                 |                                                 |
| \\      /  F ield         | OpenFOAM: The Open Source CFD Toolbox           |
|  \\    /   O peration     | Version:  2412                                  |
|   \\  /    A nd           | Website:  www.openfoam.com                      |
|    \\/     M anipulation  |                                                 |
\*---------------------------------------------------------------------------*/
FoamFile
{
    version     2.0;
    format      ascii;
    arch        "LSB;label=32;scalar=64";
    class       volVectorField;
    location    "1.9e-06";
    object      U;
}
// * * * * * * * * * * * * * * * * * * * * * * * * * * * * * * * * * * * * * //

dimensions      [0 0 0 0 0 0 0];

internalField   nonuniform List<vector> 
84
(
(2635.95 2.00202 2.11806e-15)
(2633.94 2.03894 -2.42377e-15)
(2634.07 2.06841 -5.48521e-15)
(2634.06 2.09927 2.53137e-15)
(2634.05 2.13105 -5.45992e-17)
(2634.05 2.16382 3.04691e-16)
(2634.04 2.1976 5.20659e-15)
(2634.07 2.19648 1.09198e-15)
(2636.59 -2.00215 2.06896e-15)
(2634.61 -2.0543 -2.27917e-15)
(2634.74 -2.08312 -6.55634e-15)
(2634.74 -2.11451 2.71011e-16)
(2634.74 -2.14681 -1.1595e-14)
(2634.75 -2.18012 1.55342e-15)
(2634.75 -2.21447 9.54587e-15)
(2634.78 -2.21308 2.23379e-15)
(2636.55 -1.93659 -9.33261e-15)
(2634.59 -2.11273 1.53773e-15)
(2634.71 -2.08149 3.39185e-15)
(2634.71 -2.11495 -1.37962e-16)
(2634.71 -2.14723 -7.26846e-17)
(2634.72 -2.18054 4.75425e-15)
(2634.72 -2.21491 -3.72843e-15)
(2634.75 -2.21353 -5.05246e-15)
(2636.52 -1.97928 -9.43274e-15)
(2634.55 -2.08643 4.87162e-15)
(2634.68 -2.11526 -1.78205e-16)
(2634.68 -2.14764 -1.06761e-14)
(2634.69 -2.18097 9.77381e-15)
(2634.69 -2.21536 2.14525e-15)
(2634.72 -2.21397 -3.63866e-15)
(2636.51 -2.03296 -5.1271e-15)
(2634.52 -2.08582 -2.16103e-15)
(2634.65 -2.11582 6.64016e-17)
(2634.65 -2.1482 1.88737e-17)
(2634.66 -2.18155 -3.40388e-15)
(2634.66 -2.21596 2.61764e-15)
(2634.69 -2.21457 7.2269e-15)
(2636.47 -1.93744 -3.2298e-15)
(2634.48 -1.98642 5.888e-15)
(2634.61 -2.01525 -1.72431e-16)
(2634.61 -2.04628 7.08273e-15)
(2634.61 -2.07825 -6.15088e-15)
(2634.62 -2.11122 5.20466e-15)
(2634.65 -2.10992 -1.13004e-14)
(2636.41 -1.56317 -4.48467e-19)
(2634.42 -1.60162 5.81151e-15)
(2634.55 -1.62482 -1.7147e-16)
(2634.55 -1.64983 -1.5236e-17)
(2634.55 -1.6756 5.97964e-15)
(2634.55 -1.70219 1.00116e-15)
(2634.58 -1.70116 6.29307e-15)
(2636.37 -1.26638 1.8872e-17)
(2634.38 -1.39975 1.43404e-17)
(2634.5 -1.37134 -1.87194e-17)
(2634.5 -1.39421 -2.37144e-17)
(2634.5 -1.41603 -2.10073e-18)
(2634.5 -1.43859 4.57981e-18)
(2634.54 -1.43774 -4.65994e-15)
(2636.33 -1.18483 1.13555e-14)
(2634.33 -1.24383 -3.69649e-16)
(2634.46 -1.2617 -1.17791e-14)
(2634.46 -1.28138 -4.64624e-15)
(2634.46 -1.30166 6.1174e-15)
(2634.49 -1.30092 -3.36253e-18)
(2636.33 -1.21667 -4.03524e-15)
(2634.35 -1.24309 1.36337e-16)
(2634.48 -1.26143 -5.85325e-15)
(2634.48 -1.28088 6.12064e-15)
(2634.48 -1.30091 1.07333e-14)
(2634.51 -1.30019 -1.7554e-16)
(2636.32 -1.33875 -5.50184e-15)
(2634.33 -1.39918 1.80582e-16)
(2634.46 -1.41871 1.29885e-18)
(2634.45 -1.44071 1.06862e-14)
(2634.45 -1.46336 1.15719e-14)
(2634.49 -1.46255 1.06091e-15)
(2636.28 -0.0677396 -1.44703e-16)
(2634.31 -1.72534 3.05159e-18)
(2634.44 -1.67663 -4.00552e-20)
(2634.44 -1.70394 7.03134e-15)
(2634.44 -1.73028 -2.13692e-16)
(2634.44 -1.75748 4.02746e-18)
(2634.47 -1.75655 -6.15239e-15)
)
;

boundaryField
{
    inlet
    {
        type            calculated;
        value           nonuniform List<vector> 0();
    }
    outlet2
    {
        type            calculated;
        value           uniform (0 0 0);
    }
    outlet1
    {
        type            calculated;
        value           uniform (0 0 0);
    }
    wall
    {
        type            calculated;
        value           uniform (0 0 0);
    }
    symmetryBottom
    {
        type            symmetry;
    }
    symmetryZ0
    {
        type            symmetry;
    }
    symmetryZ05
    {
        type            symmetry;
    }
    procBoundary0to1
    {
        type            processor;
        value           uniform (0 0 0);
    }
}


// ************************************************************************* //
