/*--------------------------------*- C++ -*----------------------------------*\
| =========                 |                                                 |
| \\      /  F ield         | OpenFOAM: The Open Source CFD Toolbox           |
|  \\    /   O peration     | Version:  2412                                  |
|   \\  /    A nd           | Website:  www.openfoam.com                      |
|    \\/     M anipulation  |                                                 |
\*---------------------------------------------------------------------------*/
FoamFile
{
    version     2.0;
    format      ascii;
    arch        "LSB;label=32;scalar=64";
    class       volScalarField;
    location    "5.3e-06";
    object      E;
}
// * * * * * * * * * * * * * * * * * * * * * * * * * * * * * * * * * * * * * //

dimensions      [0 0 0 0 0 0 0];

internalField   nonuniform List<scalar> 
84
(
99.4368
30.547
44.0058
99.4614
30.5704
44.0273
99.4551
30.5674
44.0236
99.4551
30.5674
44.0236
99.4551
30.5674
44.0236
99.4551
30.5674
44.0236
99.4551
30.5674
44.0236
99.4551
30.5674
44.0236
99.4551
30.5674
44.0236
99.4551
30.5674
44.0236
99.4551
30.5673
44.0236
99.4553
30.5621
44.0206
73.169
70.2679
70.8185
76.9012
73.6736
74.2608
76.5103
73.3166
73.8966
76.121
72.9614
73.1974
70.1188
75.733
72.6074
72.8357
73.2167
75.3472
72.2552
72.4759
72.8556
74.9704
71.9108
72.1242
72.5025
74.6021
71.5741
71.7804
72.1554
74.2643
71.2624
71.4624
71.4714
70.2621
73.791
70.8376
71.0277
71.0303
71.4094
73.4312
70.508
70.6912
70.6901
71.163
73.0682
70.1758
70.3521
70.723
)
;

boundaryField
{
    inlet
    {
        type            calculated;
        value           uniform 0;
    }
    outlet2
    {
        type            calculated;
        value           uniform 0;
    }
    outlet1
    {
        type            calculated;
        value           nonuniform List<scalar> 0();
    }
    wall
    {
        type            calculated;
        value           uniform 0;
    }
    symmetryBottom
    {
        type            symmetry;
    }
    symmetryZ0
    {
        type            symmetry;
    }
    symmetryZ05
    {
        type            symmetry;
    }
    procBoundary1to0
    {
        type            processor;
        value           uniform 0;
    }
}


// ************************************************************************* //
