/*--------------------------------*- C++ -*----------------------------------*\
| =========                 |                                                 |
| \\      /  F ield         | OpenFOAM: The Open Source CFD Toolbox           |
|  \\    /   O peration     | Version:  2412                                  |
|   \\  /    A nd           | Website:  www.openfoam.com                      |
|    \\/     M anipulation  |                                                 |
\*---------------------------------------------------------------------------*/
FoamFile
{
    version     2.0;
    format      ascii;
    arch        "LSB;label=32;scalar=64";
    class       volVectorField;
    location    "5.3e-06";
    object      U;
}
// * * * * * * * * * * * * * * * * * * * * * * * * * * * * * * * * * * * * * //

dimensions      [0 0 0 0 0 0 0];

internalField   nonuniform List<vector> 
84
(
(2636.39 -0.0161277 0)
(2608.44 -0.0684131 0)
(2624.86 -0.0396893 -9.58181e-15)
(2636.39 -4.28889 0)
(2608.45 -5.77115 0)
(2624.86 -5.27525 -9.26582e-15)
(2636.39 -4.27327 0)
(2608.45 -5.7482 0)
(2624.87 -5.25489 1.25e-14)
(2636.39 -4.27327 0)
(2608.45 -5.7482 0)
(2624.87 -5.25488 -1.64883e-14)
(2636.39 -4.27327 0)
(2608.45 -5.7482 0)
(2624.87 -5.25488 -2.50654e-14)
(2636.39 -4.27327 0)
(2608.45 -5.7482 0)
(2624.87 -5.25488 1.60449e-14)
(2636.39 -4.27327 0)
(2608.45 -5.7482 0)
(2624.87 -5.25488 -1.79809e-14)
(2636.39 -4.27327 0)
(2608.45 -5.7482 0)
(2624.87 -5.25488 -2.07746e-14)
(2636.39 -4.27327 0)
(2608.45 -5.7482 0)
(2624.87 -5.25488 9.45142e-15)
(2636.39 -4.27327 0)
(2608.45 -5.7482 0)
(2624.87 -5.25488 -1.80476e-14)
(2636.39 -4.27328 0)
(2608.45 -5.74786 0)
(2624.87 -5.25474 -4.85805e-14)
(2636.39 -4.27381 0)
(2608.44 -5.70575 0)
(2624.87 -5.23757 0)
(2631.01 5.58942 5.67444e-16)
(2629.85 5.3086 6.22666e-15)
(2630.05 5.32418 6.40773e-16)
(2632.87 -5.40266 5.20532e-16)
(2631.61 -5.487 6.44691e-15)
(2631.82 -5.47817 -1.54649e-16)
(2632.79 -5.40452 -7.4076e-16)
(2631.54 -5.48794 -3.05408e-15)
(2631.75 -5.47409 -1.0952e-14)
(2632.71 -5.40562 9.56142e-16)
(2631.46 -5.48893 -1.59571e-16)
(2631.59 -5.56582 1.02942e-17)
(2630.86 0.373116 1.01165e-14)
(2632.62 -5.40821 -1.56014e-15)
(2631.39 -5.49131 4.18789e-17)
(2631.51 -5.56829 -9.97546e-17)
(2631.6 -5.56044 1.01835e-14)
(2632.51 -5.18789 -9.49861e-16)
(2631.28 -5.2834 -6.36298e-15)
(2631.41 -5.35784 3.70036e-16)
(2631.49 -5.35037 6.92508e-15)
(2632.33 -4.11507 1.14178e-15)
(2631.09 -4.26041 -1.10179e-16)
(2631.21 -4.31597 -7.40349e-18)
(2631.3 -4.31015 -5.44992e-17)
(2632.2 -3.45224 1.41309e-15)
(2630.96 -3.62792 -6.50624e-15)
(2631.08 -3.67255 7.11377e-15)
(2631.16 -3.6638 9.42777e-17)
(2632.06 -3.04757 -5.42481e-16)
(2630.77 -3.24173 -9.78583e-15)
(2630.89 -3.27826 -9.08148e-15)
(2630.88 -3.32608 1.06298e-14)
(2630.84 0.393052 5.82877e-14)
(2632.14 -2.98856 1.22146e-15)
(2630.98 -3.18576 -9.56664e-15)
(2631.1 -3.21975 6.88418e-15)
(2631.09 -3.26549 1.32591e-14)
(2631.19 -3.28105 8.46638e-15)
(2632.08 -3.43657 3.03393e-15)
(2630.89 -3.61114 -1.82297e-16)
(2631.01 -3.65369 1.96721e-17)
(2631 -3.71003 -1.65532e-17)
(2631.11 -3.95215 -1.03917e-14)
(2632.02 -4.19122 6.87916e-18)
(2630.84 -4.32609 9.39157e-15)
(2630.96 -4.3818 -8.18979e-16)
(2631.04 -4.374 -1.33627e-14)
)
;

boundaryField
{
    inlet
    {
        type            calculated;
        value           uniform (0 0 0);
    }
    outlet2
    {
        type            calculated;
        value           uniform (0 0 0);
    }
    outlet1
    {
        type            calculated;
        value           nonuniform List<vector> 0();
    }
    wall
    {
        type            calculated;
        value           uniform (0 0 0);
    }
    symmetryBottom
    {
        type            symmetry;
    }
    symmetryZ0
    {
        type            symmetry;
    }
    symmetryZ05
    {
        type            symmetry;
    }
    procBoundary1to0
    {
        type            processor;
        value           uniform (0 0 0);
    }
}


// ************************************************************************* //
