/*--------------------------------*- C++ -*----------------------------------*\
| =========                 |                                                 |
| \\      /  F ield         | OpenFOAM: The Open Source CFD Toolbox           |
|  \\    /   O peration     | Version:  2412                                  |
|   \\  /    A nd           | Website:  www.openfoam.com                      |
|    \\/     M anipulation  |                                                 |
\*---------------------------------------------------------------------------*/
FoamFile
{
    version     2.0;
    format      ascii;
    arch        "LSB;label=32;scalar=64";
    class       volScalarField;
    location    "1.3e-06";
    object      rho;
}
// * * * * * * * * * * * * * * * * * * * * * * * * * * * * * * * * * * * * * //

dimensions      [0 0 0 0 0 0 0];

internalField   nonuniform List<scalar> 
84
(
2.81053e-05
2.58065e-05
2.58521e-05
2.58517e-05
2.58519e-05
2.58521e-05
2.58522e-05
2.58873e-05
2.84392e-05
2.61196e-05
2.61704e-05
2.61748e-05
2.61799e-05
2.61852e-05
2.61906e-05
2.6226e-05
2.83984e-05
2.60925e-05
2.61375e-05
2.61415e-05
2.61461e-05
2.61508e-05
2.61557e-05
2.61911e-05
2.83696e-05
2.6059e-05
2.61088e-05
2.61123e-05
2.61166e-05
2.61209e-05
2.61563e-05
2.83405e-05
2.60263e-05
2.60756e-05
2.60786e-05
2.60823e-05
2.60861e-05
2.61214e-05
2.83058e-05
2.59937e-05
2.60424e-05
2.60449e-05
2.60481e-05
2.60513e-05
2.60866e-05
2.82711e-05
2.59611e-05
2.60093e-05
2.60113e-05
2.60139e-05
2.60166e-05
2.60519e-05
2.82329e-05
2.59315e-05
2.59762e-05
2.59778e-05
2.59799e-05
2.5982e-05
2.60173e-05
2.82004e-05
2.58973e-05
2.59445e-05
2.59455e-05
2.59471e-05
2.59823e-05
2.81692e-05
2.5865e-05
2.59117e-05
2.59122e-05
2.59133e-05
2.59484e-05
2.81323e-05
2.58319e-05
2.5878e-05
2.5878e-05
2.58785e-05
2.59136e-05
2.80631e-05
2.58009e-05
2.58445e-05
2.5844e-05
2.5844e-05
2.5844e-05
2.58791e-05
)
;

boundaryField
{
    inlet
    {
        type            calculated;
        value           nonuniform List<scalar> 0();
    }
    outlet2
    {
        type            calculated;
        value           uniform 0;
    }
    outlet1
    {
        type            calculated;
        value           uniform 0;
    }
    wall
    {
        type            calculated;
        value           uniform 0;
    }
    symmetryBottom
    {
        type            symmetry;
    }
    symmetryZ0
    {
        type            symmetry;
    }
    symmetryZ05
    {
        type            symmetry;
    }
    procBoundary0to1
    {
        type            processor;
        value           uniform 0;
    }
}


// ************************************************************************* //
