/*--------------------------------*- C++ -*----------------------------------*\
| =========                 |                                                 |
| \\      /  F ield         | OpenFOAM: The Open Source CFD Toolbox           |
|  \\    /   O peration     | Version:  2412                                  |
|   \\  /    A nd           | Website:  www.openfoam.com                      |
|    \\/     M anipulation  |                                                 |
\*---------------------------------------------------------------------------*/
FoamFile
{
    version     2.0;
    format      ascii;
    arch        "LSB;label=32;scalar=64";
    class       volVectorField;
    location    "1.3e-06";
    object      rhoU;
}
// * * * * * * * * * * * * * * * * * * * * * * * * * * * * * * * * * * * * * //

dimensions      [0 0 0 0 0 0 0];

internalField   nonuniform List<vector> 
84
(
(0.0740886 3.86502e-05 4.22338e-20)
(0.0679936 3.61433e-05 -4.23155e-20)
(0.0681152 3.67354e-05 -9.71272e-20)
(0.068114 3.7285e-05 4.44358e-20)
(0.0681143 3.7852e-05 -1.86098e-22)
(0.0681147 3.84366e-05 5.28096e-21)
(0.068115 3.90395e-05 8.92102e-20)
(0.068208 3.90784e-05 1.79859e-20)
(0.0749814 -3.89711e-05 3.99601e-20)
(0.0688304 -3.66994e-05 -3.82689e-20)
(0.0689657 -3.72989e-05 -1.19784e-19)
(0.0689773 -3.78669e-05 3.65392e-21)
(0.0689909 -3.84529e-05 -2.05314e-19)
(0.0690049 -3.90573e-05 2.55549e-20)
(0.0690193 -3.96811e-05 1.70306e-19)
(0.0691132 -3.97163e-05 4.33171e-20)
(0.0748729 -3.80524e-05 -1.82589e-19)
(0.0687585 -3.73061e-05 2.73271e-20)
(0.0688785 -3.7245e-05 5.95689e-20)
(0.0688891 -3.7826e-05 -1.84946e-21)
(0.0689013 -3.84106e-05 -1.05816e-21)
(0.0689139 -3.90137e-05 8.39215e-20)
(0.0689269 -3.96361e-05 -6.60905e-20)
(0.0690206 -3.96712e-05 -8.57386e-20)
(0.0747965 -3.87508e-05 -1.84356e-19)
(0.0686697 -3.7178e-05 8.52864e-20)
(0.0688025 -3.77853e-05 -2.29259e-21)
(0.0688118 -3.83683e-05 -1.9015e-19)
(0.068823 -3.89701e-05 1.70467e-19)
(0.0688345 -3.95911e-05 4.08111e-20)
(0.0689282 -3.96262e-05 -6.39247e-20)
(0.0747196 -3.94287e-05 -1.02427e-19)
(0.0685829 -3.71305e-05 -3.92887e-20)
(0.0687144 -3.77454e-05 7.91374e-22)
(0.0687224 -3.83271e-05 2.12863e-22)
(0.0687322 -3.89276e-05 -5.94475e-20)
(0.0687422 -3.95473e-05 4.6134e-20)
(0.0688359 -3.95824e-05 1.28104e-19)
(0.0746274 -3.74541e-05 -6.23531e-20)
(0.0684962 -3.52501e-05 1.02149e-19)
(0.0686262 -3.58361e-05 -2.00968e-21)
(0.0686329 -3.63898e-05 1.24905e-19)
(0.0686412 -3.69614e-05 -1.063e-19)
(0.0686499 -3.75513e-05 8.90209e-20)
(0.0687434 -3.75851e-05 -1.97638e-19)
(0.0745347 -3.01895e-05 -6.0813e-24)
(0.0684093 -2.839e-05 1.01785e-19)
(0.0685378 -2.88615e-05 -1.99394e-21)
(0.0685431 -2.93069e-05 -3.00209e-22)
(0.06855 -2.97667e-05 1.07174e-19)
(0.0685572 -3.02411e-05 1.92746e-20)
(0.0686507 -3.02687e-05 1.10915e-19)
(0.0744332 -2.47455e-05 1.53845e-22)
(0.0683306 -2.4436e-05 1.20107e-22)
(0.0684499 -2.43151e-05 -3.22351e-22)
(0.068454 -2.47022e-05 -2.95372e-22)
(0.0684596 -2.50901e-05 8.78132e-24)
(0.0684653 -2.54905e-05 1.26257e-23)
(0.0685587 -2.55142e-05 -8.13866e-20)
(0.074347 -2.30448e-05 2.16179e-19)
(0.06824 -2.20185e-05 -4.20174e-21)
(0.0683657 -2.23857e-05 -2.0613e-19)
(0.0683684 -2.27352e-05 -8.38e-20)
(0.0683726 -2.30963e-05 1.06006e-19)
(0.0684659 -2.31181e-05 -5.83296e-23)
(0.0742645 -2.35211e-05 -7.92622e-20)
(0.0681548 -2.20583e-05 1.59803e-21)
(0.0682792 -2.24285e-05 -1.02492e-19)
(0.0682806 -2.27756e-05 1.04682e-19)
(0.0682835 -2.31339e-05 1.90336e-19)
(0.0683767 -2.31561e-05 1.36941e-23)
(0.0741671 -2.60098e-05 -1.05823e-19)
(0.0680673 -2.47436e-05 2.05987e-21)
(0.0681901 -2.51513e-05 3.63768e-23)
(0.0681901 -2.55414e-05 1.89158e-19)
(0.0681916 -2.59441e-05 2.07267e-19)
(0.0682847 -2.59689e-05 2.50293e-20)
(0.0739837 -8.91557e-07 -1.88813e-21)
(0.0679853 -3.00632e-05 2.28966e-23)
(0.0681016 -2.97106e-05 -1.88751e-25)
(0.0681003 -3.01767e-05 1.23297e-19)
(0.0681003 -3.06442e-05 -2.50399e-21)
(0.0681004 -3.11266e-05 3.06093e-23)
(0.0681934 -3.11573e-05 -1.0609e-19)
)
;

boundaryField
{
    inlet
    {
        type            calculated;
        value           nonuniform List<vector> 0();
    }
    outlet2
    {
        type            calculated;
        value           uniform (0 0 0);
    }
    outlet1
    {
        type            calculated;
        value           uniform (0 0 0);
    }
    wall
    {
        type            calculated;
        value           uniform (0 0 0);
    }
    symmetryBottom
    {
        type            symmetry;
    }
    symmetryZ0
    {
        type            symmetry;
    }
    symmetryZ05
    {
        type            symmetry;
    }
    procBoundary0to1
    {
        type            processor;
        value           uniform (0 0 0);
    }
}


// ************************************************************************* //
