/*--------------------------------*- C++ -*----------------------------------*\
| =========                 |                                                 |
| \\      /  F ield         | OpenFOAM: The Open Source CFD Toolbox           |
|  \\    /   O peration     | Version:  2412                                  |
|   \\  /    A nd           | Website:  www.openfoam.com                      |
|    \\/     M anipulation  |                                                 |
\*---------------------------------------------------------------------------*/
FoamFile
{
    version     2.0;
    format      ascii;
    arch        "LSB;label=32;scalar=64";
    class       volVectorField;
    location    "1.3e-06";
    object      U;
}
// * * * * * * * * * * * * * * * * * * * * * * * * * * * * * * * * * * * * * //

dimensions      [0 0 0 0 0 0 0];

internalField   nonuniform List<vector> 
84
(
(2636.11 1.37519 1.5027e-15)
(2634.75 1.40055 -1.63972e-15)
(2634.8 1.42098 -3.75703e-15)
(2634.79 1.44226 1.71887e-15)
(2634.79 1.46419 -7.19861e-18)
(2634.79 1.48679 2.04276e-16)
(2634.78 1.5101 3.45077e-15)
(2634.8 1.50956 6.94775e-16)
(2636.55 -1.37033 1.4051e-15)
(2635.2 -1.40505 -1.46514e-15)
(2635.26 -1.42524 -4.57707e-15)
(2635.26 -1.44669 1.39597e-16)
(2635.26 -1.46879 -7.84244e-15)
(2635.27 -1.49158 9.75928e-16)
(2635.27 -1.51509 6.50254e-15)
(2635.29 -1.51438 1.65169e-15)
(2636.52 -1.33995 -6.42956e-15)
(2635.18 -1.42976 1.04732e-15)
(2635.24 -1.42496 2.27906e-15)
(2635.24 -1.44697 -7.07479e-17)
(2635.24 -1.46908 -4.04712e-17)
(2635.24 -1.49187 3.20913e-15)
(2635.25 -1.51539 -2.52681e-15)
(2635.27 -1.51468 -3.27357e-15)
(2636.51 -1.36593 -6.49838e-15)
(2635.16 -1.42668 3.27282e-15)
(2635.22 -1.44723 -8.78089e-17)
(2635.22 -1.46936 -7.28199e-15)
(2635.22 -1.49216 6.52717e-15)
(2635.23 -1.51569 1.56239e-15)
(2635.25 -1.51498 -2.44396e-15)
(2636.49 -1.39125 -3.61416e-15)
(2635.14 -1.42665 -1.50958e-15)
(2635.2 -1.44754 3.03492e-17)
(2635.2 -1.46968 8.16234e-18)
(2635.2 -1.49249 -2.27923e-15)
(2635.21 -1.51603 1.76853e-15)
(2635.23 -1.51532 4.90417e-15)
(2636.47 -1.32319 -2.20284e-15)
(2635.11 -1.3561 3.92979e-15)
(2635.17 -1.37606 -7.71696e-17)
(2635.17 -1.39719 4.79577e-15)
(2635.17 -1.41897 -4.08092e-15)
(2635.18 -1.44144 3.41713e-15)
(2635.2 -1.44078 -7.57621e-15)
(2636.43 -1.06786 -2.15107e-19)
(2635.07 -1.09356 3.92066e-15)
(2635.13 -1.10966 -7.66626e-17)
(2635.13 -1.1267 -1.15415e-17)
(2635.13 -1.14426 4.11988e-15)
(2635.13 -1.16238 7.40857e-16)
(2635.15 -1.16186 4.25748e-15)
(2636.4 -0.876477 5.44914e-18)
(2635.04 -0.942328 4.63169e-18)
(2635.1 -0.936054 -1.24095e-17)
(2635.1 -0.950899 -1.13702e-17)
(2635.1 -0.965753 3.38005e-19)
(2635.1 -0.981083 4.85939e-19)
(2635.12 -0.980664 -3.12818e-15)
(2636.38 -0.817179 7.6658e-15)
(2635.02 -0.850222 -1.62246e-16)
(2635.07 -0.862829 -7.94505e-15)
(2635.07 -0.876269 -3.22985e-15)
(2635.07 -0.890127 4.08545e-15)
(2635.1 -0.889763 -2.24497e-18)
(2636.37 -0.834992 -2.81379e-15)
(2635.02 -0.852824 6.17835e-17)
(2635.08 -0.865578 -3.95545e-15)
(2635.08 -0.878953 4.03986e-15)
(2635.08 -0.892744 7.34512e-15)
(2635.1 -0.89239 5.27744e-19)
(2636.36 -0.92455 -3.76161e-15)
(2635.01 -0.957868 7.97411e-17)
(2635.07 -0.971921 1.4057e-18)
(2635.06 -0.986994 7.30963e-15)
(2635.06 -1.00253 8.00924e-15)
(2635.09 -1.00213 9.65875e-16)
(2636.34 -0.0317698 -6.72817e-17)
(2635 -1.1652 8.87433e-19)
(2635.05 -1.14959 -7.30335e-21)
(2635.05 -1.16765 4.77082e-15)
(2635.05 -1.18574 -9.68887e-17)
(2635.05 -1.2044 1.18439e-18)
(2635.07 -1.20395 -4.09943e-15)
)
;

boundaryField
{
    inlet
    {
        type            calculated;
        value           nonuniform List<vector> 0();
    }
    outlet2
    {
        type            calculated;
        value           uniform (0 0 0);
    }
    outlet1
    {
        type            calculated;
        value           uniform (0 0 0);
    }
    wall
    {
        type            calculated;
        value           uniform (0 0 0);
    }
    symmetryBottom
    {
        type            symmetry;
    }
    symmetryZ0
    {
        type            symmetry;
    }
    symmetryZ05
    {
        type            symmetry;
    }
    procBoundary0to1
    {
        type            processor;
        value           uniform (0 0 0);
    }
}


// ************************************************************************* //
