/*--------------------------------*- C++ -*----------------------------------*\
| =========                 |                                                 |
| \\      /  F ield         | OpenFOAM: The Open Source CFD Toolbox           |
|  \\    /   O peration     | Version:  2412                                  |
|   \\  /    A nd           | Website:  www.openfoam.com                      |
|    \\/     M anipulation  |                                                 |
\*---------------------------------------------------------------------------*/
FoamFile
{
    version     2.0;
    format      ascii;
    arch        "LSB;label=32;scalar=64";
    class       volScalarField;
    location    "6.1e-06";
    object      rho_dof0;
}
// * * * * * * * * * * * * * * * * * * * * * * * * * * * * * * * * * * * * * //

dimensions      [0 0 0 0 0 0 0];

internalField   nonuniform List<scalar> 
84
(
2.74292e-05
1.81494e-05
1.90672e-05
1.90087e-05
1.90129e-05
1.90141e-05
1.90155e-05
1.91466e-05
2.89662e-05
1.9191e-05
2.01743e-05
2.01296e-05
2.01513e-05
2.01705e-05
2.01905e-05
2.03276e-05
2.86709e-05
1.92076e-05
2.00404e-05
2.00111e-05
2.00297e-05
2.00469e-05
2.00648e-05
2.02013e-05
2.85531e-05
1.89883e-05
1.99531e-05
1.99059e-05
1.99242e-05
1.99399e-05
2.00758e-05
2.84996e-05
1.88693e-05
1.98346e-05
1.97855e-05
1.98019e-05
1.98156e-05
1.99508e-05
2.83353e-05
1.87578e-05
1.97159e-05
1.96652e-05
1.96796e-05
1.96913e-05
1.98259e-05
2.81704e-05
1.86472e-05
1.95974e-05
1.95453e-05
1.95577e-05
1.95673e-05
1.97013e-05
2.79395e-05
1.86093e-05
1.94726e-05
1.94283e-05
1.94382e-05
1.9446e-05
1.95793e-05
2.77884e-05
1.84321e-05
1.93641e-05
1.93091e-05
1.93177e-05
1.94503e-05
2.77028e-05
1.8328e-05
1.92588e-05
1.92023e-05
1.92094e-05
1.93414e-05
2.75015e-05
1.82188e-05
1.91373e-05
1.90796e-05
1.90846e-05
1.9216e-05
2.71956e-05
1.81474e-05
1.90192e-05
1.89643e-05
1.89672e-05
1.89674e-05
1.90983e-05
)
;

boundaryField
{
    inlet
    {
        type            calculated;
        value           nonuniform List<scalar> 0();
    }
    outlet2
    {
        type            calculated;
        value           uniform 2.81085e-05;
    }
    outlet1
    {
        type            calculated;
        value           uniform 2.81085e-05;
    }
    wall
    {
        type            calculated;
        value           uniform 2.81085e-05;
    }
    symmetryBottom
    {
        type            symmetry;
    }
    symmetryZ0
    {
        type            symmetry;
    }
    symmetryZ05
    {
        type            symmetry;
    }
    procBoundary0to1
    {
        type            processor;
        value           uniform 2.81085e-05;
    }
}


// ************************************************************************* //
