/*--------------------------------*- C++ -*----------------------------------*\
| =========                 |                                                 |
| \\      /  F ield         | OpenFOAM: The Open Source CFD Toolbox           |
|  \\    /   O peration     | Version:  2412                                  |
|   \\  /    A nd           | Website:  www.openfoam.com                      |
|    \\/     M anipulation  |                                                 |
\*---------------------------------------------------------------------------*/
FoamFile
{
    version     2.0;
    format      ascii;
    arch        "LSB;label=32;scalar=64";
    class       volVectorField;
    location    "6.1e-06";
    object      rhoU_dof0;
}
// * * * * * * * * * * * * * * * * * * * * * * * * * * * * * * * * * * * * * //

dimensions      [0 0 0 0 0 0 0];

internalField   nonuniform List<vector> 
84
(
(0.0722594 0.000171348 1.72353e-19)
(0.0476844 0.000115505 -1.65758e-19)
(0.0501289 0.000122964 -2.90191e-19)
(0.0499718 0.000124369 1.84904e-19)
(0.0499826 0.000126221 -2.51412e-20)
(0.0499855 0.000128109 2.31129e-20)
(0.0499888 0.000130055 2.75315e-19)
(0.0503356 0.000130745 3.47026e-20)
(0.0763671 -0.000185664 1.71071e-19)
(0.0504623 -0.000127157 -1.67064e-19)
(0.053083 -0.00013486 -3.7667e-19)
(0.0529626 -0.000136666 4.65418e-20)
(0.0530203 -0.000138898 -7.05813e-19)
(0.0530711 -0.000141188 1.6811e-19)
(0.0531239 -0.000143554 5.72853e-19)
(0.053487 -0.000144268 1.15134e-19)
(0.0755825 -0.000166662 -7.00007e-19)
(0.0505087 -0.000142799 1.36667e-19)
(0.0527281 -0.000132092 2.15066e-19)
(0.052649 -0.000136021 -2.5713e-20)
(0.0526983 -0.00013808 -9.9596e-21)
(0.052744 -0.000140351 2.76222e-19)
(0.0527913 -0.00014269 -2.39596e-19)
(0.0531527 -0.000143401 -2.63405e-19)
(0.0752703 -0.000172714 -6.70949e-19)
(0.0499263 -0.000128331 3.15257e-19)
(0.0524975 -0.000135436 -3.54426e-20)
(0.0523704 -0.000137265 -6.3924e-19)
(0.0524191 -0.00013952 6.3754e-19)
(0.0524607 -0.000141831 1.03516e-19)
(0.0528205 -0.000142539 -2.41004e-19)
(0.0751297 -0.000185789 -4.27471e-19)
(0.0496113 -0.000126719 -1.08849e-19)
(0.052184 -0.000134743 1.2426e-20)
(0.0520518 -0.000136505 3.78026e-21)
(0.0520953 -0.000138737 -2.2257e-19)
(0.0521316 -0.000141022 1.88973e-19)
(0.0524897 -0.000141728 3.98154e-19)
(0.0746935 -0.000178587 -2.57557e-19)
(0.0493155 -0.000121578 3.37873e-19)
(0.0518691 -0.000129363 -3.71899e-20)
(0.0517328 -0.000131081 4.03713e-19)
(0.051771 -0.000133258 -3.72071e-19)
(0.0518019 -0.000135488 3.1336e-19)
(0.0521583 -0.000136167 -6.78124e-19)
(0.0742533 -0.000142895 -9.5321e-23)
(0.0490203 -9.74659e-05 3.12417e-19)
(0.0515527 -0.000103538 -3.57329e-20)
(0.0514125 -0.00010492 1.19326e-21)
(0.0514454 -0.000106647 3.31616e-19)
(0.0514709 -0.000108418 4.09121e-20)
(0.0518257 -0.000108964 3.28198e-19)
(0.0736395 -0.000105893 6.36502e-21)
(0.0489192 -9.55209e-05 4.75456e-21)
(0.0512207 -8.62283e-05 -1.84894e-21)
(0.0511016 -8.91082e-05 -4.75031e-21)
(0.0511278 -9.0468e-05 -9.6831e-22)
(0.0511482 -9.19883e-05 2.22508e-21)
(0.0515013 -9.24505e-05 -2.6744e-19)
(0.0732363 -0.000100754 9.21338e-19)
(0.0484464 -7.45039e-05 -8.94963e-20)
(0.0509307 -7.87306e-05 -6.92624e-19)
(0.0507829 -7.97773e-05 -2.11984e-19)
(0.0508056 -8.1081e-05 3.82369e-19)
(0.0511567 -8.1494e-05 -4.62608e-20)
(0.073014 -0.000105859 -3.26697e-19)
(0.0481794 -7.17725e-05 3.20416e-20)
(0.0506594 -7.63607e-05 -3.21109e-19)
(0.0505081 -7.72971e-05 3.56218e-19)
(0.050527 -7.85053e-05 5.94366e-19)
(0.0508765 -7.89122e-05 -6.63803e-20)
(0.0724821 -0.000111302 -4.38331e-19)
(0.0478901 -8.23026e-05 4.38804e-20)
(0.0503376 -8.6347e-05 -1.99398e-21)
(0.0501829 -8.75057e-05 6.25958e-19)
(0.0501962 -8.88878e-05 6.41304e-19)
(0.0505441 -8.93463e-05 2.0116e-20)
(0.0716728 -1.65072e-05 -3.30394e-20)
(0.0477014 -0.000111699 2.3017e-21)
(0.0500257 -0.000100088 -1.13148e-22)
(0.0498784 -0.000102749 3.75172e-19)
(0.0498862 -0.000104255 -4.21611e-20)
(0.0498867 -0.000105881 2.90625e-21)
(0.0502333 -0.000106432 -3.14493e-19)
)
;

boundaryField
{
    inlet
    {
        type            calculated;
        value           nonuniform List<vector> 0();
    }
    outlet2
    {
        type            calculated;
        value           uniform (0.0741049 0 0);
    }
    outlet1
    {
        type            calculated;
        value           uniform (0.0741049 0 0);
    }
    wall
    {
        type            calculated;
        value           uniform (0.0741049 0 0);
    }
    symmetryBottom
    {
        type            symmetry;
    }
    symmetryZ0
    {
        type            symmetry;
    }
    symmetryZ05
    {
        type            symmetry;
    }
    procBoundary0to1
    {
        type            processor;
        value           uniform (0.0741049 0 0);
    }
}


// ************************************************************************* //
