/*--------------------------------*- C++ -*----------------------------------*\
| =========                 |                                                 |
| \\      /  F ield         | OpenFOAM: The Open Source CFD Toolbox           |
|  \\    /   O peration     | Version:  2412                                  |
|   \\  /    A nd           | Website:  www.openfoam.com                      |
|    \\/     M anipulation  |                                                 |
\*---------------------------------------------------------------------------*/
FoamFile
{
    version     2.0;
    format      ascii;
    arch        "LSB;label=32;scalar=64";
    class       volVectorField;
    location    "6.1e-06";
    object      U;
}
// * * * * * * * * * * * * * * * * * * * * * * * * * * * * * * * * * * * * * //

dimensions      [0 0 0 0 0 0 0];

internalField   nonuniform List<vector> 
84
(
(2634.39 6.24691 6.28356e-15)
(2627.32 6.36409 -9.13294e-15)
(2629.06 6.44898 -1.52194e-14)
(2628.89 6.54273 9.72734e-15)
(2628.88 6.63872 -1.32232e-15)
(2628.86 6.73759 1.21556e-15)
(2628.84 6.83943 1.44784e-14)
(2628.96 6.82864 1.81247e-15)
(2636.42 -6.40967 5.90589e-15)
(2629.48 -6.62588 -8.70532e-15)
(2631.22 -6.68477 -1.86708e-14)
(2631.08 -6.78932 2.31211e-15)
(2631.11 -6.89277 -3.50257e-14)
(2631.12 -6.99971 8.33443e-15)
(2631.14 -7.11 2.83724e-14)
(2631.25 -7.09715 5.66393e-15)
(2636.21 -5.81295 -2.44153e-14)
(2629.63 -7.43452 7.11525e-15)
(2631.09 -6.5913 1.07316e-14)
(2630.99 -6.79729 -1.28494e-15)
(2631.01 -6.89379 -4.97242e-16)
(2631.02 -7.00112 1.37788e-14)
(2631.04 -7.11144 -1.19411e-14)
(2631.16 -7.09858 -1.3039e-14)
(2636.15 -6.04886 -2.34983e-14)
(2629.32 -6.75841 1.66027e-14)
(2631.05 -6.78772 -1.7763e-15)
(2630.91 -6.89572 -3.21132e-14)
(2630.93 -7.00253 3.19983e-14)
(2630.94 -7.11293 5.19139e-15)
(2631.06 -7.10005 -1.20047e-14)
(2636.17 -6.51901 -1.49992e-14)
(2629.2 -6.71562 -5.76855e-15)
(2630.95 -6.79333 6.26479e-16)
(2630.81 -6.89924 1.91062e-16)
(2630.83 -7.00624 -1.12398e-14)
(2630.84 -7.11675 9.53659e-15)
(2630.96 -7.10386 1.99568e-14)
(2636.06 -6.30262 -9.08961e-15)
(2629.07 -6.48148 1.80124e-14)
(2630.83 -6.56136 -1.88629e-15)
(2630.68 -6.66566 2.05293e-14)
(2630.7 -6.77136 -1.89064e-14)
(2630.71 -6.88059 1.59137e-14)
(2630.82 -6.86814 -3.4204e-14)
(2635.86 -5.07251 -3.38372e-18)
(2628.82 -5.22683 1.6754e-14)
(2630.59 -5.28323 -1.82335e-15)
(2630.43 -5.36804 6.10514e-17)
(2630.45 -5.45295 1.69558e-14)
(2630.45 -5.54077 2.09084e-15)
(2630.57 -5.53081 1.66587e-14)
(2635.68 -3.7901 2.27814e-16)
(2628.75 -5.13297 2.55494e-16)
(2630.4 -4.42818 -9.4951e-17)
(2630.26 -4.58651 -2.44504e-16)
(2630.27 -4.65413 -4.98147e-17)
(2630.27 -4.73046 1.14424e-16)
(2630.39 -4.72185 -1.36593e-14)
(2635.5 -3.62575 3.31555e-14)
(2628.37 -4.04208 -4.85546e-15)
(2630.16 -4.0658 -3.57684e-14)
(2630 -4.13159 -1.09784e-14)
(2630 -4.19724 1.97937e-14)
(2630.13 -4.18986 -2.37841e-15)
(2635.62 -3.82124 -1.17929e-14)
(2628.74 -3.91601 1.74824e-15)
(2630.46 -3.96499 -1.66734e-14)
(2630.31 -4.0254 1.85507e-14)
(2630.32 -4.08681 3.09414e-14)
(2630.44 -4.07996 -3.43203e-15)
(2635.56 -4.04712 -1.59384e-14)
(2628.61 -4.51745 2.40852e-15)
(2630.34 -4.51198 -1.04193e-16)
(2630.19 -4.58635 3.28077e-14)
(2630.2 -4.65757 3.36032e-14)
(2630.32 -4.64959 1.04684e-15)
(2635.46 -0.606981 -1.21488e-15)
(2628.56 -6.15512 1.26834e-16)
(2630.27 -5.26245 -5.94914e-18)
(2630.12 -5.41804 1.97831e-14)
(2630.13 -5.49659 -2.22285e-15)
(2630.13 -5.58226 1.53223e-16)
(2630.25 -5.57287 -1.64671e-14)
)
;

boundaryField
{
    inlet
    {
        type            calculated;
        value           nonuniform List<vector> 0();
    }
    outlet2
    {
        type            calculated;
        value           uniform (0 0 0);
    }
    outlet1
    {
        type            calculated;
        value           uniform (0 0 0);
    }
    wall
    {
        type            calculated;
        value           uniform (0 0 0);
    }
    symmetryBottom
    {
        type            symmetry;
    }
    symmetryZ0
    {
        type            symmetry;
    }
    symmetryZ05
    {
        type            symmetry;
    }
    procBoundary0to1
    {
        type            processor;
        value           uniform (0 0 0);
    }
}


// ************************************************************************* //
