/*--------------------------------*- C++ -*----------------------------------*\
| =========                 |                                                 |
| \\      /  F ield         | OpenFOAM: The Open Source CFD Toolbox           |
|  \\    /   O peration     | Version:  2412                                  |
|   \\  /    A nd           | Website:  www.openfoam.com                      |
|    \\/     M anipulation  |                                                 |
\*---------------------------------------------------------------------------*/
FoamFile
{
    version     2.0;
    format      ascii;
    arch        "LSB;label=32;scalar=64";
    class       volScalarField;
    location    "7.3e-06";
    object      E;
}
// * * * * * * * * * * * * * * * * * * * * * * * * * * * * * * * * * * * * * //

dimensions      [0 0 0 0 0 0 0];

internalField   nonuniform List<scalar> 
84
(
99.4414
11.3061
34.4531
99.4837
11.3314
34.4803
99.4729
11.3283
34.4749
99.4729
11.3283
34.4749
99.4729
11.3283
34.4749
99.4729
11.3283
34.4749
99.4729
11.3283
34.4749
99.4729
11.3283
34.4749
99.4729
11.3283
34.4749
99.4729
11.3283
34.4749
99.4729
11.3283
34.4749
99.4732
11.322
34.4723
66.2002
61.5065
62.3834
70.9308
65.6076
66.5686
70.4286
65.1719
66.1178
69.9291
64.7391
65.2466
61.3637
69.4321
64.3084
64.8029
65.267
68.9373
63.8793
64.3611
64.823
68.4543
63.4599
63.9293
64.3891
67.9856
63.0525
63.5101
63.9643
67.5508
62.669
63.1165
63.1109
61.613
66.9617
62.1708
62.6013
62.5885
63.0605
66.4989
61.7676
62.1865
62.1699
62.8096
66.0429
61.3708
61.7784
62.2263
)
;

boundaryField
{
    inlet
    {
        type            calculated;
        value           uniform 0;
    }
    outlet2
    {
        type            calculated;
        value           uniform 0;
    }
    outlet1
    {
        type            calculated;
        value           nonuniform List<scalar> 0();
    }
    wall
    {
        type            calculated;
        value           uniform 0;
    }
    symmetryBottom
    {
        type            symmetry;
    }
    symmetryZ0
    {
        type            symmetry;
    }
    symmetryZ05
    {
        type            symmetry;
    }
    procBoundary1to0
    {
        type            processor;
        value           uniform 0;
    }
}


// ************************************************************************* //
