/*--------------------------------*- C++ -*----------------------------------*\
| =========                 |                                                 |
| \\      /  F ield         | OpenFOAM: The Open Source CFD Toolbox           |
|  \\    /   O peration     | Version:  2412                                  |
|   \\  /    A nd           | Website:  www.openfoam.com                      |
|    \\/     M anipulation  |                                                 |
\*---------------------------------------------------------------------------*/
FoamFile
{
    version     2.0;
    format      ascii;
    arch        "LSB;label=32;scalar=64";
    class       volScalarField;
    location    "7.3e-06";
    object      T;
}
// * * * * * * * * * * * * * * * * * * * * * * * * * * * * * * * * * * * * * //

dimensions      [0 0 0 0 0 0 0];

internalField   nonuniform List<scalar> 
84
(
200.015
189.69
200.389
199.966
189.483
200.295
199.953
189.455
200.277
199.953
189.455
200.277
199.953
189.455
200.277
199.953
189.455
200.277
199.953
189.455
200.277
199.953
189.455
200.277
199.953
189.455
200.277
199.953
189.455
200.277
199.953
189.454
200.277
199.953
189.384
200.268
204.651
204.321
204.362
200.025
199.983
200
200.026
199.983
200
200.026
199.983
199.999
200.039
200.032
199.989
200.005
200.004
200.68
200.585
200.611
200.608
204.141
203.829
203.929
203.918
207.417
206.889
207.06
207.042
221.975
220.18
220.737
221.073
197.592
192.091
192.469
192.326
192.21
191.733
198.11
198.184
198.159
198.132
198.295
199.222
199.228
199.227
199.227
)
;

boundaryField
{
    inlet
    {
        type            calculated;
        value           uniform 0;
    }
    outlet2
    {
        type            calculated;
        value           uniform 0;
    }
    outlet1
    {
        type            calculated;
        value           nonuniform List<scalar> 0();
    }
    wall
    {
        type            calculated;
        value           uniform 0;
    }
    symmetryBottom
    {
        type            symmetry;
    }
    symmetryZ0
    {
        type            symmetry;
    }
    symmetryZ05
    {
        type            symmetry;
    }
    procBoundary1to0
    {
        type            processor;
        value           uniform 0;
    }
}


// ************************************************************************* //
