/*--------------------------------*- C++ -*----------------------------------*\
| =========                 |                                                 |
| \\      /  F ield         | OpenFOAM: The Open Source CFD Toolbox           |
|  \\    /   O peration     | Version:  2412                                  |
|   \\  /    A nd           | Website:  www.openfoam.com                      |
|    \\/     M anipulation  |                                                 |
\*---------------------------------------------------------------------------*/
FoamFile
{
    version     2.0;
    format      ascii;
    arch        "LSB;label=32;scalar=64";
    class       volScalarField;
    location    "8.2e-06";
    object      E;
}
// * * * * * * * * * * * * * * * * * * * * * * * * * * * * * * * * * * * * * //

dimensions      [0 0 0 0 0 0 0];

internalField   nonuniform List<scalar> 
84
(
99.4436
3.6072
31.5436
99.4946
3.63057
31.573
99.4817
3.62809
31.5669
99.4817
3.62809
31.5669
99.4817
3.62809
31.5669
99.4817
3.62809
31.5669
99.4817
3.62809
31.5669
99.4817
3.62809
31.5669
99.4817
3.62809
31.5669
99.4817
3.62809
31.5669
99.4817
3.62801
31.5668
99.482
3.62126
31.5646
63.3862
57.889
58.9397
68.5092
62.2209
63.3855
67.962
61.7579
62.9028
67.4181
61.2984
61.9671
57.7705
66.8773
60.8413
61.494
61.983
66.3386
60.3858
61.0225
61.5091
65.8129
59.9405
60.5619
61.046
65.3046
59.5093
60.1162
60.5936
64.8309
59.1004
59.6949
59.6768
58.0728
64.1978
58.5806
59.1538
59.1285
59.6355
63.6931
58.1516
58.7103
58.6814
59.3939
63.2013
57.7339
58.2789
58.7493
)
;

boundaryField
{
    inlet
    {
        type            calculated;
        value           uniform 0;
    }
    outlet2
    {
        type            calculated;
        value           uniform 0;
    }
    outlet1
    {
        type            calculated;
        value           nonuniform List<scalar> 0();
    }
    wall
    {
        type            calculated;
        value           uniform 0;
    }
    symmetryBottom
    {
        type            symmetry;
    }
    symmetryZ0
    {
        type            symmetry;
    }
    symmetryZ05
    {
        type            symmetry;
    }
    procBoundary1to0
    {
        type            processor;
        value           uniform 0;
    }
}


// ************************************************************************* //
