/*--------------------------------*- C++ -*----------------------------------*\
| =========                 |                                                 |
| \\      /  F ield         | OpenFOAM: The Open Source CFD Toolbox           |
|  \\    /   O peration     | Version:  2412                                  |
|   \\  /    A nd           | Website:  www.openfoam.com                      |
|    \\/     M anipulation  |                                                 |
\*---------------------------------------------------------------------------*/
FoamFile
{
    version     2.0;
    format      ascii;
    arch        "LSB;label=32;scalar=64";
    class       volVectorField;
    location    "8.2e-06";
    object      U;
}
// * * * * * * * * * * * * * * * * * * * * * * * * * * * * * * * * * * * * * //

dimensions      [0 0 0 0 0 0 0];

internalField   nonuniform List<vector> 
84
(
(2636.39 -0.0339761 0)
(2392.24 -0.546564 0)
(2624.27 -0.0700172 -1.19757e-14)
(2636.39 -5.94082 0)
(2393.31 -18.0982 0)
(2624.27 -7.93835 -1.21363e-14)
(2636.39 -5.90939 0)
(2393.22 -17.9785 0)
(2624.27 -7.89284 1.62977e-14)
(2636.39 -5.90939 0)
(2393.22 -17.9785 0)
(2624.27 -7.89283 -2.34352e-14)
(2636.39 -5.90939 0)
(2393.22 -17.9785 0)
(2624.27 -7.89283 -3.5814e-14)
(2636.39 -5.90939 0)
(2393.22 -17.9785 0)
(2624.27 -7.89283 2.30611e-14)
(2636.39 -5.90939 0)
(2393.22 -17.9785 0)
(2624.27 -7.89283 -2.72491e-14)
(2636.39 -5.90939 0)
(2393.22 -17.9785 0)
(2624.27 -7.89283 -3.07869e-14)
(2636.39 -5.90939 0)
(2393.22 -17.9785 0)
(2624.27 -7.89283 1.21325e-14)
(2636.39 -5.90939 0)
(2393.22 -17.9784 0)
(2624.27 -7.89283 -2.74391e-14)
(2636.39 -5.9094 0)
(2393.22 -17.9738 0)
(2624.27 -7.89259 -7.1299e-14)
(2636.39 -5.91006 0)
(2392.9 -17.6085 0)
(2624.27 -7.87474 0)
(2628.5 8.65816 1.18361e-15)
(2626.04 8.00979 1.01326e-14)
(2626.62 8.07411 1.08237e-15)
(2631.44 -8.35867 1.06419e-15)
(2628.76 -8.49157 1.05253e-14)
(2629.37 -8.46871 -3.66487e-16)
(2631.31 -8.36284 -1.48539e-15)
(2628.65 -8.49286 -5.08673e-15)
(2629.24 -8.45737 -1.47085e-14)
(2631.18 -8.36471 1.98338e-15)
(2628.53 -8.49441 -3.78312e-16)
(2629 -8.61102 3.46026e-17)
(2627.73 0.950482 1.2884e-14)
(2631.05 -8.37023 -1.72914e-15)
(2628.42 -8.49923 8.74151e-17)
(2628.87 -8.61608 -1.60846e-16)
(2628.99 -8.59752 1.20779e-14)
(2630.88 -8.09947 -1.98031e-15)
(2628.26 -8.25302 -1.02654e-14)
(2628.71 -8.36695 1.11038e-15)
(2628.82 -8.34905 1.12378e-14)
(2630.57 -6.388 2.32808e-15)
(2627.93 -6.65847 -3.59198e-16)
(2628.38 -6.73424 4.94613e-17)
(2628.5 -6.72083 -9.23226e-17)
(2630.35 -5.3778 2.81026e-15)
(2627.69 -5.71395 -1.09007e-14)
(2628.15 -5.76969 1.19205e-14)
(2628.26 -5.74862 2.08613e-16)
(2630.06 -4.66389 -1.13214e-15)
(2627.26 -5.04924 -1.2937e-14)
(2627.74 -5.08639 -1.18106e-14)
(2627.69 -5.16264 1.46749e-14)
(2627.7 0.991031 8.70844e-14)
(2630.32 -4.47912 2.48474e-15)
(2627.88 -4.8809 -1.29542e-14)
(2628.29 -4.90952 1.18458e-14)
(2628.26 -4.98015 1.79553e-14)
(2628.42 -5.02601 1.27559e-14)
(2630.19 -5.22986 6.36486e-15)
(2627.68 -5.57373 -6.6929e-16)
(2628.11 -5.62151 6.36343e-17)
(2628.07 -5.7134 -4.5024e-17)
(2628.27 -6.32632 -1.2822e-14)
(2630.1 -6.40823 1.06912e-17)
(2627.6 -6.65968 1.30084e-14)
(2628.02 -6.73411 -2.03891e-15)
(2628.14 -6.7159 -1.86175e-14)
)
;

boundaryField
{
    inlet
    {
        type            calculated;
        value           uniform (0 0 0);
    }
    outlet2
    {
        type            calculated;
        value           uniform (0 0 0);
    }
    outlet1
    {
        type            calculated;
        value           nonuniform List<vector> 0();
    }
    wall
    {
        type            calculated;
        value           uniform (0 0 0);
    }
    symmetryBottom
    {
        type            symmetry;
    }
    symmetryZ0
    {
        type            symmetry;
    }
    symmetryZ05
    {
        type            symmetry;
    }
    procBoundary1to0
    {
        type            processor;
        value           uniform (0 0 0);
    }
}


// ************************************************************************* //
