/*--------------------------------*- C++ -*----------------------------------*\
| =========                 |                                                 |
| \\      /  F ield         | OpenFOAM: The Open Source CFD Toolbox           |
|  \\    /   O peration     | Version:  2412                                  |
|   \\  /    A nd           | Website:  www.openfoam.com                      |
|    \\/     M anipulation  |                                                 |
\*---------------------------------------------------------------------------*/
FoamFile
{
    version     2.0;
    format      ascii;
    arch        "LSB;label=32;scalar=64";
    class       volScalarField;
    location    "4.3e-06";
    object      rho_dof0;
}
// * * * * * * * * * * * * * * * * * * * * * * * * * * * * * * * * * * * * * //

dimensions      [0 0 0 0 0 0 0];

internalField   nonuniform List<scalar> 
84
(
2.77875e-05
2.0868e-05
2.13474e-05
2.13265e-05
2.1328e-05
2.13288e-05
2.13297e-05
2.14303e-05
2.88833e-05
2.17095e-05
2.22196e-05
2.22112e-05
2.22264e-05
2.22413e-05
2.22568e-05
2.23606e-05
2.8699e-05
2.16848e-05
2.21223e-05
2.21183e-05
2.21317e-05
2.21451e-05
2.2159e-05
2.22625e-05
2.86112e-05
2.15453e-05
2.20475e-05
2.20367e-05
2.20493e-05
2.20616e-05
2.21648e-05
2.85539e-05
2.14532e-05
2.19549e-05
2.19427e-05
2.19538e-05
2.19645e-05
2.20673e-05
2.8438e-05
2.1364e-05
2.18623e-05
2.18487e-05
2.18584e-05
2.18675e-05
2.197e-05
2.83219e-05
2.12752e-05
2.177e-05
2.1755e-05
2.17631e-05
2.17707e-05
2.18729e-05
2.81706e-05
2.1223e-05
2.16758e-05
2.16627e-05
2.16692e-05
2.16753e-05
2.17771e-05
2.80634e-05
2.11017e-05
2.15886e-05
2.1571e-05
2.15762e-05
2.16777e-05
2.79881e-05
2.10172e-05
2.15029e-05
2.14841e-05
2.1488e-05
2.15891e-05
2.78522e-05
2.0928e-05
2.14085e-05
2.13884e-05
2.13907e-05
2.14915e-05
2.76313e-05
2.08598e-05
2.13165e-05
2.12965e-05
2.12974e-05
2.12975e-05
2.1398e-05
)
;

boundaryField
{
    inlet
    {
        type            calculated;
        value           nonuniform List<scalar> 0();
    }
    outlet2
    {
        type            calculated;
        value           uniform 2.81085e-05;
    }
    outlet1
    {
        type            calculated;
        value           uniform 2.81085e-05;
    }
    wall
    {
        type            calculated;
        value           uniform 2.81085e-05;
    }
    symmetryBottom
    {
        type            symmetry;
    }
    symmetryZ0
    {
        type            symmetry;
    }
    symmetryZ05
    {
        type            symmetry;
    }
    procBoundary0to1
    {
        type            processor;
        value           uniform 2.81085e-05;
    }
}


// ************************************************************************* //
