/*--------------------------------*- C++ -*----------------------------------*\
| =========                 |                                                 |
| \\      /  F ield         | OpenFOAM: The Open Source CFD Toolbox           |
|  \\    /   O peration     | Version:  2412                                  |
|   \\  /    A nd           | Website:  www.openfoam.com                      |
|    \\/     M anipulation  |                                                 |
\*---------------------------------------------------------------------------*/
FoamFile
{
    version     2.0;
    format      ascii;
    arch        "LSB;label=32;scalar=64";
    class       volVectorField;
    location    "4.3e-06";
    object      rhoU;
}
// * * * * * * * * * * * * * * * * * * * * * * * * * * * * * * * * * * * * * //

dimensions      [0 0 0 0 0 0 0];

internalField   nonuniform List<vector> 
84
(
(0.0732241 0.000123893 1.24255e-19)
(0.0548913 9.4775e-05 -1.24414e-19)
(0.0561687 9.82943e-05 -2.49632e-19)
(0.0561124 9.96418e-05 1.37052e-19)
(0.0561161 0.000101132 -1.20697e-20)
(0.056118 0.000102663 1.63989e-20)
(0.0561199 0.000104242 2.36973e-19)
(0.0563863 0.000104617 4.11841e-20)
(0.0761532 -0.00013068 1.28956e-19)
(0.0571375 -0.000101142 -1.23903e-19)
(0.0584974 -0.00010474 -3.07087e-19)
(0.0584744 -0.000106297 2.69777e-20)
(0.0585147 -0.000107994 -5.74572e-19)
(0.0585542 -0.000109743 1.08428e-19)
(0.0585951 -0.00011155 4.60203e-19)
(0.0588702 -0.000111926 9.20267e-20)
(0.0756635 -0.000120781 -5.42153e-19)
(0.0570732 -0.000108881 9.55866e-20)
(0.0582394 -0.00010363 1.72508e-19)
(0.0582283 -0.000105905 -1.41466e-20)
(0.058264 -0.000107554 -6.16793e-21)
(0.0582994 -0.00010929 2.30618e-19)
(0.0583361 -0.000111082 -2.00216e-19)
(0.0586103 -0.000111457 -2.26878e-19)
(0.0754306 -0.000124344 -5.2692e-19)
(0.0567027 -0.000102137 2.49132e-19)
(0.0580415 -0.00010553 -1.96922e-20)
(0.0580122 -0.000107116 -5.11745e-19)
(0.0580457 -0.000108839 4.92497e-19)
(0.0580782 -0.000110617 9.39961e-20)
(0.0583515 -0.00011099 -1.99813e-19)
(0.0752795 -0.000131281 -3.16416e-19)
(0.056459 -0.000101418 -9.13433e-20)
(0.0577964 -0.000105142 7.18572e-21)
(0.0577632 -0.000106703 2.19851e-21)
(0.0577927 -0.000108414 -1.8219e-19)
(0.0578211 -0.000110178 1.40392e-19)
(0.0580935 -0.00011055 3.22866e-19)
(0.0749716 -0.000125628 -1.9268e-19)
(0.0562221 -9.69182e-05 2.73811e-19)
(0.0575507 -0.000100513 -2.06131e-20)
(0.0575139 -0.000102021 3.29553e-19)
(0.0575394 -0.000103674 -2.96833e-19)
(0.0575636 -0.000105379 2.56545e-19)
(0.0578351 -0.000105737 -5.50552e-19)
(0.0746616 -0.000100815 -5.47769e-23)
(0.0559851 -7.78058e-05 2.65588e-19)
(0.057304 -8.06409e-05 -2.01886e-20)
(0.0572637 -8.18482e-05 -1.99571e-23)
(0.0572851 -8.31674e-05 2.7465e-19)
(0.0573051 -8.45276e-05 3.76233e-20)
(0.0575758 -8.48164e-05 2.74294e-19)
(0.0742594 -7.74118e-05 3.34454e-21)
(0.0558462 -7.22082e-05 2.35716e-21)
(0.0570537 -6.76688e-05 -1.14678e-21)
(0.0570183 -6.92716e-05 -2.63141e-21)
(0.0570355 -7.03659e-05 -5.4151e-22)
(0.0570515 -7.15234e-05 1.08468e-21)
(0.0573213 -7.17682e-05 -2.39351e-19)
(0.073974 -7.3102e-05 6.7243e-19)
(0.0555232 -5.97362e-05 -4.65569e-20)
(0.0568212 -6.17738e-05 -5.65845e-19)
(0.0567738 -6.26991e-05 -2.06658e-19)
(0.0567875 -6.37091e-05 3.07642e-19)
(0.0570564 -6.39298e-05 -1.94252e-20)
(0.0737769 -7.61167e-05 -2.41821e-19)
(0.0553039 -5.84941e-05 1.66574e-20)
(0.0565984 -6.06642e-05 -2.64235e-19)
(0.0565479 -6.15376e-05 2.85933e-19)
(0.0565583 -6.24987e-05 4.8404e-19)
(0.0568262 -6.27181e-05 -3.97579e-20)
(0.0734176 -8.1459e-05 -3.36413e-19)
(0.0550678 -6.63334e-05 2.24703e-20)
(0.0563487 -6.8384e-05 -5.40992e-22)
(0.0562946 -6.9397e-05 5.00913e-19)
(0.0563008 -7.04895e-05 5.22891e-19)
(0.0565679 -7.07362e-05 2.47875e-20)
(0.0728332 -8.901e-06 -1.9034e-20)
(0.0548876 -8.62159e-05 8.82213e-22)
(0.0561055 -7.99962e-05 -2.91522e-23)
(0.0560519 -8.16546e-05 3.1032e-19)
(0.0560541 -8.28928e-05 -2.37959e-20)
(0.0560545 -8.41889e-05 1.1175e-21)
(0.0563208 -8.44867e-05 -2.68484e-19)
)
;

boundaryField
{
    inlet
    {
        type            calculated;
        value           nonuniform List<vector> 0();
    }
    outlet2
    {
        type            calculated;
        value           uniform (0 0 0);
    }
    outlet1
    {
        type            calculated;
        value           uniform (0 0 0);
    }
    wall
    {
        type            calculated;
        value           uniform (0 0 0);
    }
    symmetryBottom
    {
        type            symmetry;
    }
    symmetryZ0
    {
        type            symmetry;
    }
    symmetryZ05
    {
        type            symmetry;
    }
    procBoundary0to1
    {
        type            processor;
        value           uniform (0 0 0);
    }
}


// ************************************************************************* //
