/*--------------------------------*- C++ -*----------------------------------*\
| =========                 |                                                 |
| \\      /  F ield         | OpenFOAM: The Open Source CFD Toolbox           |
|  \\    /   O peration     | Version:  2412                                  |
|   \\  /    A nd           | Website:  www.openfoam.com                      |
|    \\/     M anipulation  |                                                 |
\*---------------------------------------------------------------------------*/
FoamFile
{
    version     2.0;
    format      ascii;
    arch        "LSB;label=32;scalar=64";
    class       volScalarField;
    location    "8.3e-06";
    object      E_dof0;
}
// * * * * * * * * * * * * * * * * * * * * * * * * * * * * * * * * * * * * * //

dimensions      [0 0 0 0 0 0 0];

internalField   nonuniform List<scalar> 
84
(
99.4439
2.78551
31.2664
99.4959
2.80849
31.296
99.4827
2.8061
31.2898
99.4827
2.8061
31.2898
99.4827
2.8061
31.2898
99.4827
2.8061
31.2898
99.4827
2.8061
31.2898
99.4827
2.8061
31.2898
99.4827
2.8061
31.2898
99.4827
2.80609
31.2898
99.4827
2.80601
31.2898
99.483
2.7992
31.2876
63.0838
57.4987
58.5697
68.2484
61.8534
63.042
67.6963
61.3876
62.5559
67.1477
60.9254
61.6136
57.3838
66.6022
60.4657
61.1374
61.6286
66.0588
60.0075
60.6629
61.1517
65.5286
59.5596
60.1993
60.6857
65.016
59.1261
59.7509
60.2304
64.5382
58.7146
59.3268
59.307
57.6921
63.9005
58.1928
58.7831
58.7562
59.2668
63.3913
57.7612
58.3367
58.3062
59.0266
62.8957
57.3415
57.903
58.3754
)
;

boundaryField
{
    inlet
    {
        type            calculated;
        value           uniform 99.4306;
    }
    outlet2
    {
        type            calculated;
        value           uniform 99.4306;
    }
    outlet1
    {
        type            calculated;
        value           nonuniform List<scalar> 0();
    }
    wall
    {
        type            calculated;
        value           uniform 99.4306;
    }
    symmetryBottom
    {
        type            symmetry;
    }
    symmetryZ0
    {
        type            symmetry;
    }
    symmetryZ05
    {
        type            symmetry;
    }
    procBoundary1to0
    {
        type            processor;
        value           uniform 99.4306;
    }
}


// ************************************************************************* //
