/*--------------------------------*- C++ -*----------------------------------*\
| =========                 |                                                 |
| \\      /  F ield         | OpenFOAM: The Open Source CFD Toolbox           |
|  \\    /   O peration     | Version:  2412                                  |
|   \\  /    A nd           | Website:  www.openfoam.com                      |
|    \\/     M anipulation  |                                                 |
\*---------------------------------------------------------------------------*/
FoamFile
{
    version     2.0;
    format      ascii;
    arch        "LSB;label=32;scalar=64";
    class       volScalarField;
    location    "8.3e-06";
    object      rho;
}
// * * * * * * * * * * * * * * * * * * * * * * * * * * * * * * * * * * * * * //

dimensions      [0 0 0 0 0 0 0];

internalField   nonuniform List<scalar> 
84
(
2.81122e-05
1.01477e-06
8.91813e-06
2.8127e-05
1.02157e-06
8.92657e-06
2.81233e-05
1.02084e-06
8.92481e-06
2.81233e-05
1.02084e-06
8.92481e-06
2.81233e-05
1.02084e-06
8.92481e-06
2.81233e-05
1.02084e-06
8.92481e-06
2.81233e-05
1.02084e-06
8.92481e-06
2.81233e-05
1.02084e-06
8.92481e-06
2.81233e-05
1.02084e-06
8.92481e-06
2.81233e-05
1.02084e-06
8.92481e-06
2.81233e-05
1.02081e-06
8.92481e-06
2.81233e-05
1.01885e-06
8.92418e-06
1.79313e-05
1.63751e-05
1.66725e-05
1.93652e-05
1.75866e-05
1.79162e-05
1.92105e-05
1.74557e-05
1.77797e-05
1.90567e-05
1.73258e-05
1.75151e-05
1.63285e-05
1.89037e-05
1.71966e-05
1.73814e-05
1.75196e-05
1.87508e-05
1.70674e-05
1.72476e-05
1.73851e-05
1.85982e-05
1.69387e-05
1.71144e-05
1.72512e-05
1.84496e-05
1.68132e-05
1.69846e-05
1.71194e-05
1.82899e-05
1.66787e-05
1.68452e-05
1.68396e-05
1.64213e-05
1.81617e-05
1.65696e-05
1.67325e-05
1.67255e-05
1.68698e-05
1.80078e-05
1.64396e-05
1.6598e-05
1.65898e-05
1.67919e-05
1.78661e-05
1.63195e-05
1.64739e-05
1.66068e-05
)
;

boundaryField
{
    inlet
    {
        type            calculated;
        value           uniform 0;
    }
    outlet2
    {
        type            calculated;
        value           uniform 0;
    }
    outlet1
    {
        type            calculated;
        value           nonuniform List<scalar> 0();
    }
    wall
    {
        type            calculated;
        value           uniform 0;
    }
    symmetryBottom
    {
        type            symmetry;
    }
    symmetryZ0
    {
        type            symmetry;
    }
    symmetryZ05
    {
        type            symmetry;
    }
    procBoundary1to0
    {
        type            processor;
        value           uniform 0;
    }
}


// ************************************************************************* //
