/*--------------------------------*- C++ -*----------------------------------*\
| =========                 |                                                 |
| \\      /  F ield         | OpenFOAM: The Open Source CFD Toolbox           |
|  \\    /   O peration     | Version:  2412                                  |
|   \\  /    A nd           | Website:  www.openfoam.com                      |
|    \\/     M anipulation  |                                                 |
\*---------------------------------------------------------------------------*/
FoamFile
{
    version     2.0;
    format      ascii;
    arch        "LSB;label=32;scalar=64";
    class       volScalarField;
    location    "8.3e-06";
    object      T;
}
// * * * * * * * * * * * * * * * * * * * * * * * * * * * * * * * * * * * * * //

dimensions      [0 0 0 0 0 0 0];

internalField   nonuniform List<scalar> 
84
(
200.018
59.0926
200.552
199.959
59.6944
200.436
199.944
59.5064
200.414
199.944
59.5063
200.414
199.944
59.5063
200.414
199.944
59.5063
200.414
199.944
59.5063
200.414
199.944
59.5063
200.414
199.944
59.5063
200.414
199.944
59.5062
200.414
199.944
59.498
200.414
199.944
58.8149
200.405
205.32
204.905
204.965
200.024
199.976
200.001
200.025
199.976
200.002
200.025
199.976
200
200.051
200.033
199.984
200.008
200.005
200.726
200.613
200.647
200.643
204.729
204.335
204.464
204.448
208.524
207.848
208.068
208.042
226.015
223.521
224.28
224.679
196.787
190.917
191.392
191.222
191.088
190.417
197.814
197.916
197.888
197.856
198.065
199.097
199.112
199.113
199.113
)
;

boundaryField
{
    inlet
    {
        type            calculated;
        value           uniform 0;
    }
    outlet2
    {
        type            calculated;
        value           uniform 0;
    }
    outlet1
    {
        type            calculated;
        value           nonuniform List<scalar> 0();
    }
    wall
    {
        type            calculated;
        value           uniform 0;
    }
    symmetryBottom
    {
        type            symmetry;
    }
    symmetryZ0
    {
        type            symmetry;
    }
    symmetryZ05
    {
        type            symmetry;
    }
    procBoundary1to0
    {
        type            processor;
        value           uniform 0;
    }
}


// ************************************************************************* //
