/*--------------------------------*- C++ -*----------------------------------*\
| =========                 |                                                 |
| \\      /  F ield         | OpenFOAM: The Open Source CFD Toolbox           |
|  \\    /   O peration     | Version:  2412                                  |
|   \\  /    A nd           | Website:  www.openfoam.com                      |
|    \\/     M anipulation  |                                                 |
\*---------------------------------------------------------------------------*/
FoamFile
{
    version     2.0;
    format      ascii;
    arch        "LSB;label=32;scalar=64";
    class       volScalarField;
    location    "6.8e-06";
    object      E_dof0;
}
// * * * * * * * * * * * * * * * * * * * * * * * * * * * * * * * * * * * * * //

dimensions      [0 0 0 0 0 0 0];

internalField   nonuniform List<scalar> 
84
(
96.307
60.186
64.2201
63.9276
63.9485
63.9527
63.9578
64.4615
102.461
64.1333
68.4763
68.2313
68.3201
68.3934
68.4699
69.0003
101.232
64.2846
67.945
67.7805
67.8551
67.921
67.9895
68.5171
100.773
63.3762
67.6302
67.3768
67.4525
67.5124
68.0373
100.603
62.9194
67.1783
66.9174
66.9856
67.0377
67.5599
99.9523
62.5009
66.7263
66.46
66.5206
66.565
67.0844
99.3133
62.095
66.2841
66.0131
66.0663
66.1031
66.6199
98.3897
62.0136
65.8115
65.5829
65.6252
65.6551
66.1693
97.8777
61.3648
65.4742
65.1949
65.2349
65.746
97.3657
60.8472
64.9386
64.6527
64.6843
65.1919
96.6053
60.4699
64.5059
64.2165
64.2407
64.7457
95.4174
60.2289
64.0618
63.7881
63.8039
63.8045
64.3078
)
;

boundaryField
{
    inlet
    {
        type            calculated;
        value           nonuniform List<scalar> 0();
    }
    outlet2
    {
        type            calculated;
        value           uniform 99.4306;
    }
    outlet1
    {
        type            calculated;
        value           uniform 99.4306;
    }
    wall
    {
        type            calculated;
        value           uniform 99.4306;
    }
    symmetryBottom
    {
        type            symmetry;
    }
    symmetryZ0
    {
        type            symmetry;
    }
    symmetryZ05
    {
        type            symmetry;
    }
    procBoundary0to1
    {
        type            processor;
        value           uniform 99.4306;
    }
}


// ************************************************************************* //
