/*--------------------------------*- C++ -*----------------------------------*\
| =========                 |                                                 |
| \\      /  F ield         | OpenFOAM: The Open Source CFD Toolbox           |
|  \\    /   O peration     | Version:  2412                                  |
|   \\  /    A nd           | Website:  www.openfoam.com                      |
|    \\/     M anipulation  |                                                 |
\*---------------------------------------------------------------------------*/
FoamFile
{
    version     2.0;
    format      ascii;
    arch        "LSB;label=32;scalar=64";
    class       volVectorField;
    location    "6.8e-06";
    object      rhoU;
}
// * * * * * * * * * * * * * * * * * * * * * * * * * * * * * * * * * * * * * //

dimensions      [0 0 0 0 0 0 0];

internalField   nonuniform List<vector> 
84
(
(0.071811 0.000188918 1.90969e-19)
(0.0450106 0.00012101 -1.8109e-19)
(0.0479868 0.000130593 -3.01769e-19)
(0.0477723 0.000131903 2.02853e-19)
(0.0477877 0.00013387 -3.10749e-20)
(0.0477909 0.000135862 2.58283e-20)
(0.0477948 0.000137916 2.89525e-19)
(0.0481688 0.000138744 3.11111e-20)
(0.0763644 -0.00020685 1.92436e-19)
(0.0479381 -0.000134886 -1.82486e-19)
(0.0511413 -0.000144837 -3.99123e-19)
(0.0509622 -0.000146632 5.48193e-20)
(0.051028 -0.000149053 -7.44402e-19)
(0.0510824 -0.000151527 1.91545e-19)
(0.0511392 -0.000154084 6.09089e-19)
(0.0515328 -0.00015495 1.13421e-19)
(0.0754552 -0.000183701 -7.61536e-19)
(0.0480471 -0.000154291 1.55251e-19)
(0.0507476 -0.000141152 2.18306e-19)
(0.0506274 -0.000145907 -3.04997e-20)
(0.0506826 -0.000148068 -1.14316e-20)
(0.0507316 -0.000150523 2.87472e-19)
(0.0507825 -0.000153047 -2.51108e-19)
(0.0511741 -0.000153908 -2.76022e-19)
(0.0751152 -0.000190863 -7.27479e-19)
(0.0473751 -0.000136141 3.41144e-19)
(0.0505131 -0.000145271 -4.23632e-20)
(0.0503277 -0.000147086 -6.67412e-19)
(0.0503837 -0.000149527 6.75433e-19)
(0.0504282 -0.000152017 1.03599e-19)
(0.0508178 -0.000152875 -2.51201e-19)
(0.0749877 -0.000206688 -4.41938e-19)
(0.047036 -0.000134069 -1.1137e-19)
(0.0501774 -0.000144454 1.46044e-20)
(0.0499865 -0.000146174 4.41307e-21)
(0.0500369 -0.000148588 -2.27646e-19)
(0.0500756 -0.000151048 2.07271e-19)
(0.0504632 -0.000151902 4.21157e-19)
(0.0745022 -0.000199024 -2.82532e-19)
(0.0467232 -0.000128828 3.61199e-19)
(0.0498397 -0.000138921 -4.44287e-20)
(0.0496448 -0.000140606 4.29174e-19)
(0.0496896 -0.000142968 -3.99268e-19)
(0.0497225 -0.000145377 3.34915e-19)
(0.0501081 -0.0001462 -7.11569e-19)
(0.0740118 -0.000159058 -1.11844e-22)
(0.0464115 -0.000103237 3.29322e-19)
(0.0495003 -0.000111079 -4.22563e-20)
(0.0493018 -0.000112442 1.90543e-21)
(0.0493408 -0.000114313 3.52337e-19)
(0.0493679 -0.000116222 3.80936e-20)
(0.0497514 -0.000116884 3.47724e-19)
(0.0733114 -0.000116325 7.65553e-21)
(0.0463387 -0.000103582 5.89087e-21)
(0.0491381 -9.21213e-05 -2.18684e-21)
(0.0489704 -9.56564e-05 -5.64887e-21)
(0.0490013 -9.70772e-05 -1.10112e-21)
(0.0490231 -9.87244e-05 2.73801e-21)
(0.0494046 -9.92841e-05 -2.75473e-19)
(0.0728629 -0.00011099 1.02133e-18)
(0.0458064 -7.88159e-05 -1.09515e-19)
(0.0488321 -8.42254e-05 -7.31442e-19)
(0.0486263 -8.52537e-05 -2.11116e-19)
(0.0486542 -8.66583e-05 4.09017e-19)
(0.0490331 -8.71568e-05 -5.67417e-20)
(0.0726386 -0.000116962 -3.58289e-19)
(0.045526 -7.53932e-05 3.91122e-20)
(0.0485473 -8.12878e-05 -3.36389e-19)
(0.048338 -8.21772e-05 3.79588e-19)
(0.0483619 -8.34652e-05 6.26547e-19)
(0.0487389 -8.39546e-05 -7.67598e-20)
(0.0720378 -0.00012217 -4.54389e-19)
(0.0452232 -8.69318e-05 5.30221e-20)
(0.0482014 -9.20252e-05 -2.87028e-21)
(0.0479893 -9.3181e-05 6.56966e-19)
(0.0480071 -9.46572e-05 6.59655e-19)
(0.0483822 -9.52092e-05 1.70535e-20)
(0.0711445 -1.98519e-05 -3.87715e-20)
(0.0450396 -0.000120069 3.05682e-21)
(0.0478663 -0.000106211 -1.69846e-22)
(0.0476657 -0.000109338 3.98113e-19)
(0.0476773 -0.000110908 -4.99833e-20)
(0.0476778 -0.000112637 3.87296e-21)
(0.0480515 -0.000113301 -3.27904e-19)
)
;

boundaryField
{
    inlet
    {
        type            calculated;
        value           nonuniform List<vector> 0();
    }
    outlet2
    {
        type            calculated;
        value           uniform (0 0 0);
    }
    outlet1
    {
        type            calculated;
        value           uniform (0 0 0);
    }
    wall
    {
        type            calculated;
        value           uniform (0 0 0);
    }
    symmetryBottom
    {
        type            symmetry;
    }
    symmetryZ0
    {
        type            symmetry;
    }
    symmetryZ05
    {
        type            symmetry;
    }
    procBoundary0to1
    {
        type            processor;
        value           uniform (0 0 0);
    }
}


// ************************************************************************* //
