/*--------------------------------*- C++ -*----------------------------------*\
| =========                 |                                                 |
| \\      /  F ield         | OpenFOAM: The Open Source CFD Toolbox           |
|  \\    /   O peration     | Version:  2412                                  |
|   \\  /    A nd           | Website:  www.openfoam.com                      |
|    \\/     M anipulation  |                                                 |
\*---------------------------------------------------------------------------*/
FoamFile
{
    version     2.0;
    format      ascii;
    arch        "LSB;label=32;scalar=64";
    class       volScalarField;
    location    "6.8e-06";
    object      T;
}
// * * * * * * * * * * * * * * * * * * * * * * * * * * * * * * * * * * * * * //

dimensions      [0 0 0 0 0 0 0];

internalField   nonuniform List<scalar> 
84
(
204.133
204.179
204.319
204.372
204.441
204.511
204.583
204.575
199.973
199.93
200.008
199.996
199.997
199.997
199.997
199.998
199.948
199.932
200.007
199.996
199.997
199.997
199.997
199.998
199.983
199.927
200.009
199.996
199.997
199.997
199.998
199.982
199.932
200.015
200.002
200.004
200.004
200.004
200.539
200.538
200.614
200.606
200.612
200.616
200.615
203.665
203.774
203.886
203.934
203.995
204.057
204.049
206.412
206.949
206.954
207.073
207.185
207.302
207.287
217.78
220.691
220.734
221.128
221.521
221.463
192.523
192.343
192.313
192.172
192.043
192.059
198.071
198.136
198.163
198.121
198.09
198.095
199.799
199.124
199.25
199.222
199.21
199.197
199.2
)
;

boundaryField
{
    inlet
    {
        type            calculated;
        value           nonuniform List<scalar> 0();
    }
    outlet2
    {
        type            calculated;
        value           uniform 0;
    }
    outlet1
    {
        type            calculated;
        value           uniform 0;
    }
    wall
    {
        type            calculated;
        value           uniform 0;
    }
    symmetryBottom
    {
        type            symmetry;
    }
    symmetryZ0
    {
        type            symmetry;
    }
    symmetryZ05
    {
        type            symmetry;
    }
    procBoundary0to1
    {
        type            processor;
        value           uniform 0;
    }
}


// ************************************************************************* //
