/*--------------------------------*- C++ -*----------------------------------*\
| =========                 |                                                 |
| \\      /  F ield         | OpenFOAM: The Open Source CFD Toolbox           |
|  \\    /   O peration     | Version:  2412                                  |
|   \\  /    A nd           | Website:  www.openfoam.com                      |
|    \\/     M anipulation  |                                                 |
\*---------------------------------------------------------------------------*/
FoamFile
{
    version     2.0;
    format      ascii;
    arch        "LSB;label=32;scalar=64";
    class       volVectorField;
    location    "6.8e-06";
    object      U;
}
// * * * * * * * * * * * * * * * * * * * * * * * * * * * * * * * * * * * * * //

dimensions      [0 0 0 0 0 0 0];

internalField   nonuniform List<vector> 
84
(
(2634.08 6.92966 7.00488e-15)
(2625.99 7.05989 -1.05651e-14)
(2628.27 7.15264 -1.65281e-14)
(2628.02 7.25616 1.11592e-14)
(2628.02 7.36199 -1.70892e-15)
(2627.99 7.47099 1.42028e-15)
(2627.97 7.58325 1.59194e-14)
(2628.11 7.56993 1.69744e-15)
(2636.34 -7.1411 6.6435e-15)
(2628.41 -7.39568 -1.00056e-14)
(2630.68 -7.45032 -2.05307e-14)
(2630.47 -7.56857 2.82956e-15)
(2630.5 -7.68373 -3.83741e-14)
(2630.52 -7.80295 9.86372e-15)
(2630.54 -7.9259 3.13308e-14)
(2630.67 -7.90993 5.78994e-15)
(2636.09 -6.41774 -2.66049e-14)
(2628.63 -8.44113 8.49365e-15)
(2630.52 -7.31667 1.1316e-14)
(2630.37 -7.58069 -1.58462e-15)
(2630.39 -7.68465 -5.93294e-16)
(2630.41 -7.80453 1.49053e-14)
(2630.42 -7.92751 -1.30069e-14)
(2630.56 -7.91153 -1.41887e-14)
(2636.02 -6.69797 -2.55295e-14)
(2628.23 -7.55268 1.89256e-14)
(2630.48 -7.56503 -2.20607e-15)
(2630.27 -7.68716 -3.48809e-14)
(2630.3 -7.8061 3.52612e-14)
(2630.31 -7.92917 5.40368e-15)
(2630.45 -7.91318 -1.30027e-14)
(2636.05 -7.26573 -1.55355e-14)
(2628.1 -7.49101 -6.22271e-15)
(2630.38 -7.57252 7.65586e-16)
(2630.16 -7.69131 2.32205e-16)
(2630.19 -7.81053 -1.19662e-14)
(2630.2 -7.93373 1.08868e-14)
(2630.34 -7.91772 2.19523e-14)
(2635.93 -7.04157 -9.99612e-15)
(2627.95 -7.24597 2.03157e-14)
(2630.24 -7.33139 -2.34467e-15)
(2630.02 -7.44884 2.27362e-14)
(2630.05 -7.56723 -2.11331e-14)
(2630.05 -7.68965 1.77152e-14)
(2630.19 -7.67409 -3.73505e-14)
(2635.71 -5.66439 -3.98299e-18)
(2627.67 -5.84493 1.86451e-14)
(2629.96 -5.90165 -2.24508e-15)
(2629.74 -5.99763 1.01635e-16)
(2629.76 -6.09265 1.87788e-14)
(2629.76 -6.19102 2.0292e-15)
(2629.9 -6.17857 1.8381e-14)
(2635.5 -4.18181 2.75212e-16)
(2627.61 -5.87356 3.34038e-16)
(2629.74 -4.93008 -1.17034e-16)
(2629.54 -5.13642 -3.03324e-16)
(2629.56 -5.20945 -5.90893e-17)
(2629.56 -5.2955 1.46865e-16)
(2629.7 -5.28467 -1.46628e-14)
(2635.29 -4.01425 3.6939e-14)
(2627.13 -4.52031 -6.281e-15)
(2629.45 -4.53528 -3.93858e-14)
(2629.22 -4.60966 -1.1415e-14)
(2629.23 -4.68295 2.2103e-14)
(2629.37 -4.67374 -3.04274e-15)
(2635.44 -4.24357 -1.29993e-14)
(2627.6 -4.35143 2.25742e-15)
(2629.84 -4.40341 -1.82224e-14)
(2629.62 -4.47049 2.06498e-14)
(2629.64 -4.53836 3.4068e-14)
(2629.77 -4.52988 -4.14168e-15)
(2635.38 -4.4694 -1.66231e-14)
(2627.44 -5.05069 3.08055e-15)
(2629.7 -5.02057 -1.56592e-16)
(2629.47 -5.10566 3.59971e-14)
(2629.49 -5.18465 3.61313e-14)
(2629.63 -5.17473 9.26876e-16)
(2635.26 -0.735333 -1.43613e-15)
(2627.39 -7.00424 1.7832e-16)
(2629.62 -5.83488 -9.33079e-18)
(2629.4 -6.03146 2.19612e-14)
(2629.41 -6.11662 -2.75659e-15)
(2629.41 -6.21191 2.13592e-16)
(2629.55 -6.20022 -1.79441e-14)
)
;

boundaryField
{
    inlet
    {
        type            calculated;
        value           nonuniform List<vector> 0();
    }
    outlet2
    {
        type            calculated;
        value           uniform (0 0 0);
    }
    outlet1
    {
        type            calculated;
        value           uniform (0 0 0);
    }
    wall
    {
        type            calculated;
        value           uniform (0 0 0);
    }
    symmetryBottom
    {
        type            symmetry;
    }
    symmetryZ0
    {
        type            symmetry;
    }
    symmetryZ05
    {
        type            symmetry;
    }
    procBoundary0to1
    {
        type            processor;
        value           uniform (0 0 0);
    }
}


// ************************************************************************* //
