/*--------------------------------*- C++ -*----------------------------------*\
| =========                 |                                                 |
| \\      /  F ield         | OpenFOAM: The Open Source CFD Toolbox           |
|  \\    /   O peration     | Version:  2412                                  |
|   \\  /    A nd           | Website:  www.openfoam.com                      |
|    \\/     M anipulation  |                                                 |
\*---------------------------------------------------------------------------*/
FoamFile
{
    version     2.0;
    format      ascii;
    arch        "LSB;label=32;scalar=64";
    class       volScalarField;
    location    "8.8e-06";
    object      rho_dof0;
}
// * * * * * * * * * * * * * * * * * * * * * * * * * * * * * * * * * * * * * //

dimensions      [0 0 0 0 0 0 0];

internalField   nonuniform List<scalar> 
84
(
2.88133e-05
1.53024e-05
1.6248e-05
1.62086e-05
1.6215e-05
1.62206e-05
1.62127e-05
1.63985e-05
3.07262e-05
1.63419e-05
1.73654e-05
1.73406e-05
1.73651e-05
1.73892e-05
1.74012e-05
1.75967e-05
3.03442e-05
1.63552e-05
1.72264e-05
1.72126e-05
1.72346e-05
1.72568e-05
1.72669e-05
1.74612e-05
3.00307e-05
1.61219e-05
1.71104e-05
1.70835e-05
1.71048e-05
1.71122e-05
1.73052e-05
3.00423e-05
1.59677e-05
1.69648e-05
1.6935e-05
1.69539e-05
1.69586e-05
1.71504e-05
2.97974e-05
1.58325e-05
1.68196e-05
1.67878e-05
1.68043e-05
1.68063e-05
1.69969e-05
2.9551e-05
1.56992e-05
1.66755e-05
1.66419e-05
1.66559e-05
1.66554e-05
1.68448e-05
2.9234e-05
1.56256e-05
1.65274e-05
1.64975e-05
1.65089e-05
1.65059e-05
1.66941e-05
2.89621e-05
1.54487e-05
1.63979e-05
1.63616e-05
1.63577e-05
1.65447e-05
2.88359e-05
1.5308e-05
1.62557e-05
1.62172e-05
1.62108e-05
1.63966e-05
2.85793e-05
1.5178e-05
1.61143e-05
1.6074e-05
1.60652e-05
1.62498e-05
2.80963e-05
1.508e-05
1.59715e-05
1.5931e-05
1.59336e-05
1.5921e-05
1.61044e-05
)
;

boundaryField
{
    inlet
    {
        type            calculated;
        value           nonuniform List<scalar> 0();
    }
    outlet2
    {
        type            calculated;
        value           uniform 2.81085e-05;
    }
    outlet1
    {
        type            calculated;
        value           uniform 2.81085e-05;
    }
    wall
    {
        type            calculated;
        value           uniform 2.81085e-05;
    }
    symmetryBottom
    {
        type            symmetry;
    }
    symmetryZ0
    {
        type            symmetry;
    }
    symmetryZ05
    {
        type            symmetry;
    }
    procBoundary0to1
    {
        type            processor;
        value           uniform 2.81085e-05;
    }
}


// ************************************************************************* //
