/*--------------------------------*- C++ -*----------------------------------*\
| =========                 |                                                 |
| \\      /  F ield         | OpenFOAM: The Open Source CFD Toolbox           |
|  \\    /   O peration     | Version:  2412                                  |
|   \\  /    A nd           | Website:  www.openfoam.com                      |
|    \\/     M anipulation  |                                                 |
\*---------------------------------------------------------------------------*/
FoamFile
{
    version     2.0;
    format      ascii;
    arch        "LSB;label=32;scalar=64";
    class       volScalarField;
    location    "8.8e-06";
    object      T;
}
// * * * * * * * * * * * * * * * * * * * * * * * * * * * * * * * * * * * * * //

dimensions      [0 0 0 0 0 0 0];

internalField   nonuniform List<scalar> 
84
(
203.309
203.3
203.44
203.484
203.538
203.593
203.655
203.645
199.999
199.916
200.008
199.999
200
200
199.999
200.002
199.973
199.914
200.003
199.995
199.996
199.996
199.995
199.997
200.004
199.913
200.004
199.996
199.996
199.995
199.997
199.994
199.911
200.004
199.995
199.996
199.995
199.997
199.998
199.91
200.004
199.995
199.996
199.995
199.997
199.996
199.912
200.004
199.995
199.996
199.995
199.997
199.973
199.905
200.004
199.995
199.996
199.995
199.997
200.007
199.909
200.004
199.995
199.995
199.997
199.992
199.91
200.004
199.995
199.995
199.997
200.002
199.908
200.004
199.995
199.994
199.997
199.975
199.888
200.006
199.996
199.997
199.995
199.998
)
;

boundaryField
{
    inlet
    {
        type            calculated;
        value           nonuniform List<scalar> 0();
    }
    outlet2
    {
        type            calculated;
        value           uniform 0;
    }
    outlet1
    {
        type            calculated;
        value           uniform 0;
    }
    wall
    {
        type            calculated;
        value           uniform 0;
    }
    symmetryBottom
    {
        type            symmetry;
    }
    symmetryZ0
    {
        type            symmetry;
    }
    symmetryZ05
    {
        type            symmetry;
    }
    procBoundary0to1
    {
        type            processor;
        value           uniform 0;
    }
}


// ************************************************************************* //
