/*--------------------------------*- C++ -*----------------------------------*\
| =========                 |                                                 |
| \\      /  F ield         | OpenFOAM: The Open Source CFD Toolbox           |
|  \\    /   O peration     | Version:  2412                                  |
|   \\  /    A nd           | Website:  www.openfoam.com                      |
|    \\/     M anipulation  |                                                 |
\*---------------------------------------------------------------------------*/
FoamFile
{
    version     2.0;
    format      ascii;
    arch        "LSB;label=32;scalar=64";
    class       volScalarField;
    location    "2e-06";
    object      rho;
}
// * * * * * * * * * * * * * * * * * * * * * * * * * * * * * * * * * * * * * //

dimensions      [0 0 0 0 0 0 0];

internalField   nonuniform List<scalar> 
84
(
2.80672e-05
2.46079e-05
2.47165e-05
2.47146e-05
2.47149e-05
2.47152e-05
2.47155e-05
2.47676e-05
2.85807e-05
2.50677e-05
2.51849e-05
2.51901e-05
2.51977e-05
2.52055e-05
2.52136e-05
2.52666e-05
2.8512e-05
2.50332e-05
2.51359e-05
2.51409e-05
2.51477e-05
2.51547e-05
2.5162e-05
2.52149e-05
2.84684e-05
2.49784e-05
2.50939e-05
2.50977e-05
2.5104e-05
2.51105e-05
2.51633e-05
2.84283e-05
2.49299e-05
2.50448e-05
2.50479e-05
2.50534e-05
2.5059e-05
2.51117e-05
2.83747e-05
2.48818e-05
2.49957e-05
2.49981e-05
2.50028e-05
2.50076e-05
2.50603e-05
2.83211e-05
2.48338e-05
2.49468e-05
2.49484e-05
2.49523e-05
2.49563e-05
2.50089e-05
2.82593e-05
2.47934e-05
2.48978e-05
2.48989e-05
2.49021e-05
2.49053e-05
2.49578e-05
2.82093e-05
2.47398e-05
2.48509e-05
2.48511e-05
2.48535e-05
2.49059e-05
2.81645e-05
2.46927e-05
2.48031e-05
2.48025e-05
2.48042e-05
2.48565e-05
2.8106e-05
2.4644e-05
2.47533e-05
2.47519e-05
2.47528e-05
2.4805e-05
2.80003e-05
2.46003e-05
2.4704e-05
2.4702e-05
2.47021e-05
2.47022e-05
2.47544e-05
)
;

boundaryField
{
    inlet
    {
        type            calculated;
        value           nonuniform List<scalar> 0();
    }
    outlet2
    {
        type            calculated;
        value           uniform 0;
    }
    outlet1
    {
        type            calculated;
        value           uniform 0;
    }
    wall
    {
        type            calculated;
        value           uniform 0;
    }
    symmetryBottom
    {
        type            symmetry;
    }
    symmetryZ0
    {
        type            symmetry;
    }
    symmetryZ05
    {
        type            symmetry;
    }
    procBoundary0to1
    {
        type            processor;
        value           uniform 0;
    }
}


// ************************************************************************* //
