/*--------------------------------*- C++ -*----------------------------------*\
| =========                 |                                                 |
| \\      /  F ield         | OpenFOAM: The Open Source CFD Toolbox           |
|  \\    /   O peration     | Version:  2412                                  |
|   \\  /    A nd           | Website:  www.openfoam.com                      |
|    \\/     M anipulation  |                                                 |
\*---------------------------------------------------------------------------*/
FoamFile
{
    version     2.0;
    format      ascii;
    arch        "LSB;label=32;scalar=64";
    class       volScalarField;
    location    "2e-06";
    object      T;
}
// * * * * * * * * * * * * * * * * * * * * * * * * * * * * * * * * * * * * * //

dimensions      [0 0 0 0 0 0 0];

internalField   nonuniform List<scalar> 
84
(
201.214
201.239
201.261
201.28
201.3
201.32
201.341
201.34
199.997
199.996
200
200
200
200
199.999
200
199.994
199.996
200
200
200
199.999
199.999
200
199.997
199.996
200
199.999
199.999
199.999
200
199.998
199.996
200
200
200
200
200
200.223
200.23
200.237
200.24
200.244
200.247
200.247
201.095
201.128
201.148
201.165
201.183
201.202
201.201
201.895
201.979
202.003
202.034
202.066
202.098
202.097
205.025
205.345
205.424
205.511
205.6
205.596
197.905
197.849
197.821
197.787
197.751
197.753
199.487
199.486
199.482
199.474
199.465
199.466
199.979
199.782
199.787
199.783
199.78
199.776
199.776
)
;

boundaryField
{
    inlet
    {
        type            calculated;
        value           nonuniform List<scalar> 0();
    }
    outlet2
    {
        type            calculated;
        value           uniform 0;
    }
    outlet1
    {
        type            calculated;
        value           uniform 0;
    }
    wall
    {
        type            calculated;
        value           uniform 0;
    }
    symmetryBottom
    {
        type            symmetry;
    }
    symmetryZ0
    {
        type            symmetry;
    }
    symmetryZ05
    {
        type            symmetry;
    }
    procBoundary0to1
    {
        type            processor;
        value           uniform 0;
    }
}


// ************************************************************************* //
