/*--------------------------------*- C++ -*----------------------------------*\
| =========                 |                                                 |
| \\      /  F ield         | OpenFOAM: The Open Source CFD Toolbox           |
|  \\    /   O peration     | Version:  2412                                  |
|   \\  /    A nd           | Website:  www.openfoam.com                      |
|    \\/     M anipulation  |                                                 |
\*---------------------------------------------------------------------------*/
FoamFile
{
    version     2.0;
    format      ascii;
    arch        "LSB;label=32;scalar=64";
    class       volScalarField;
    location    "8.2e-06";
    object      rho;
}
// * * * * * * * * * * * * * * * * * * * * * * * * * * * * * * * * * * * * * //

dimensions      [0 0 0 0 0 0 0];

internalField   nonuniform List<scalar> 
84
(
2.81122e-05
1.24601e-06
8.99786e-06
2.81266e-05
1.2529e-06
9.00623e-06
2.8123e-05
1.25215e-06
9.0045e-06
2.8123e-05
1.25215e-06
9.0045e-06
2.8123e-05
1.25215e-06
9.0045e-06
2.8123e-05
1.25215e-06
9.0045e-06
2.8123e-05
1.25215e-06
9.0045e-06
2.8123e-05
1.25215e-06
9.0045e-06
2.8123e-05
1.25215e-06
9.0045e-06
2.8123e-05
1.25214e-06
9.0045e-06
2.8123e-05
1.25212e-06
9.00449e-06
2.8123e-05
1.25018e-06
9.00385e-06
1.80162e-05
1.64846e-05
1.67765e-05
1.94385e-05
1.76898e-05
1.80127e-05
1.92851e-05
1.75596e-05
1.78771e-05
1.91327e-05
1.74305e-05
1.76145e-05
1.64372e-05
1.8981e-05
1.7302e-05
1.74816e-05
1.76191e-05
1.88294e-05
1.71736e-05
1.73487e-05
1.74856e-05
1.86781e-05
1.70456e-05
1.72163e-05
1.73525e-05
1.85308e-05
1.69208e-05
1.70872e-05
1.72215e-05
1.83725e-05
1.67872e-05
1.69488e-05
1.69437e-05
1.65282e-05
1.82451e-05
1.66785e-05
1.68367e-05
1.68301e-05
1.69733e-05
1.80925e-05
1.65493e-05
1.6703e-05
1.66953e-05
1.68951e-05
1.7952e-05
1.64297e-05
1.65796e-05
1.67119e-05
)
;

boundaryField
{
    inlet
    {
        type            calculated;
        value           uniform 0;
    }
    outlet2
    {
        type            calculated;
        value           uniform 0;
    }
    outlet1
    {
        type            calculated;
        value           nonuniform List<scalar> 0();
    }
    wall
    {
        type            calculated;
        value           uniform 0;
    }
    symmetryBottom
    {
        type            symmetry;
    }
    symmetryZ0
    {
        type            symmetry;
    }
    symmetryZ05
    {
        type            symmetry;
    }
    procBoundary1to0
    {
        type            processor;
        value           uniform 0;
    }
}


// ************************************************************************* //
