/*--------------------------------*- C++ -*----------------------------------*\
| =========                 |                                                 |
| \\      /  F ield         | OpenFOAM: The Open Source CFD Toolbox           |
|  \\    /   O peration     | Version:  2412                                  |
|   \\  /    A nd           | Website:  www.openfoam.com                      |
|    \\/     M anipulation  |                                                 |
\*---------------------------------------------------------------------------*/
FoamFile
{
    version     2.0;
    format      ascii;
    arch        "LSB;label=32;scalar=64";
    class       volVectorField;
    location    "8.2e-06";
    object      rhoU;
}
// * * * * * * * * * * * * * * * * * * * * * * * * * * * * * * * * * * * * * //

dimensions      [0 0 0 0 0 0 0];

internalField   nonuniform List<vector> 
84
(
(0.0741145 -9.55142e-07 0)
(0.00298075 -6.81021e-07 0)
(0.0236128 -6.30005e-07 -1.07756e-19)
(0.0741526 -0.000167095 0)
(0.00299857 -2.26752e-05 0)
(0.0236348 -7.14946e-05 -1.09303e-19)
(0.074143 -0.00016619 0)
(0.00299666 -2.25117e-05 0)
(0.0236303 -7.10711e-05 1.46752e-19)
(0.074143 -0.00016619 0)
(0.00299666 -2.25116e-05 0)
(0.0236303 -7.1071e-05 -2.11022e-19)
(0.074143 -0.00016619 0)
(0.00299666 -2.25116e-05 0)
(0.0236303 -7.1071e-05 -3.22487e-19)
(0.074143 -0.00016619 0)
(0.00299666 -2.25116e-05 0)
(0.0236303 -7.1071e-05 2.07654e-19)
(0.074143 -0.00016619 0)
(0.00299666 -2.25116e-05 0)
(0.0236303 -7.1071e-05 -2.45364e-19)
(0.074143 -0.00016619 0)
(0.00299666 -2.25116e-05 0)
(0.0236303 -7.1071e-05 -2.77221e-19)
(0.074143 -0.00016619 0)
(0.00299666 -2.25116e-05 0)
(0.0236303 -7.1071e-05 1.09247e-19)
(0.074143 -0.00016619 0)
(0.00299666 -2.25116e-05 0)
(0.0236303 -7.1071e-05 -2.47076e-19)
(0.074143 -0.00016619 0)
(0.0029966 -2.25054e-05 0)
(0.0236302 -7.10688e-05 -6.42011e-19)
(0.0741432 -0.000166209 0)
(0.00299156 -2.20138e-05 0)
(0.0236286 -7.09029e-05 0)
(0.0473556 0.000155987 2.13241e-20)
(0.0432893 0.000132039 1.67032e-19)
(0.0440654 0.000135455 1.81583e-20)
(0.0511513 -0.00016248 2.06863e-20)
(0.0465022 -0.000150214 1.86189e-19)
(0.047362 -0.000152544 -6.60141e-21)
(0.0507452 -0.000161278 -2.8646e-20)
(0.0461581 -0.000149132 -8.93211e-20)
(0.0470034 -0.000151194 -2.62945e-19)
(0.0503416 -0.000160039 3.79473e-20)
(0.0458166 -0.000148062 -6.59416e-21)
(0.0463084 -0.000151679 6.09507e-22)
(0.0431926 1.56233e-05 2.11777e-19)
(0.0499401 -0.000158876 -3.28209e-20)
(0.0454768 -0.000147054 1.51246e-21)
(0.0459569 -0.000150623 -2.81184e-21)
(0.0463204 -0.000151481 2.12802e-19)
(0.0495379 -0.000152508 -3.72881e-20)
(0.0451365 -0.000141734 -1.76294e-19)
(0.0456047 -0.000145156 1.92636e-20)
(0.0459665 -0.000145988 1.96499e-19)
(0.049134 -0.000119316 4.34841e-20)
(0.0447947 -0.000113498 -6.12274e-21)
(0.045251 -0.000115939 8.51539e-22)
(0.0456109 -0.000116623 -1.60202e-21)
(0.0487424 -9.96547e-05 5.20762e-20)
(0.0444628 -9.66848e-05 -1.84449e-19)
(0.0449078 -9.85881e-05 2.03689e-19)
(0.0452627 -9.90001e-05 3.59264e-21)
(0.0483209 -8.56874e-05 -2.08003e-20)
(0.0441042 -8.47624e-05 -2.17176e-19)
(0.0445372 -8.62085e-05 -2.00175e-19)
(0.0445229 -8.74744e-05 2.48648e-19)
(0.0434312 1.638e-05 1.43935e-18)
(0.0479905 -8.17221e-05 4.53344e-20)
(0.0438289 -8.14058e-05 -2.16057e-19)
(0.0442516 -8.26599e-05 1.99444e-19)
(0.0442338 -8.38163e-05 3.02189e-19)
(0.0446129 -8.5308e-05 2.16509e-19)
(0.0475868 -9.46216e-05 1.15157e-19)
(0.0434862 -9.22411e-05 -1.10762e-20)
(0.0438973 -9.3896e-05 1.06288e-21)
(0.0438764 -9.53868e-05 -7.51689e-22)
(0.0444049 -0.000106884 -2.16629e-19)
(0.0472155 -0.00011504 1.91928e-22)
(0.0431707 -0.000109417 2.13724e-19)
(0.0435714 -0.000111649 -3.38042e-20)
(0.0439212 -0.000112236 -3.11134e-19)
)
;

boundaryField
{
    inlet
    {
        type            calculated;
        value           uniform (0 0 0);
    }
    outlet2
    {
        type            calculated;
        value           uniform (0 0 0);
    }
    outlet1
    {
        type            calculated;
        value           nonuniform List<vector> 0();
    }
    wall
    {
        type            calculated;
        value           uniform (0 0 0);
    }
    symmetryBottom
    {
        type            symmetry;
    }
    symmetryZ0
    {
        type            symmetry;
    }
    symmetryZ05
    {
        type            symmetry;
    }
    procBoundary1to0
    {
        type            processor;
        value           uniform (0 0 0);
    }
}


// ************************************************************************* //
