/*--------------------------------*- C++ -*----------------------------------*\
| =========                 |                                                 |
| \\      /  F ield         | OpenFOAM: The Open Source CFD Toolbox           |
|  \\    /   O peration     | Version:  2412                                  |
|   \\  /    A nd           | Website:  www.openfoam.com                      |
|    \\/     M anipulation  |                                                 |
\*---------------------------------------------------------------------------*/
FoamFile
{
    version     2.0;
    format      ascii;
    arch        "LSB;label=32;scalar=64";
    class       volScalarField;
    location    "8.2e-06";
    object      T;
}
// * * * * * * * * * * * * * * * * * * * * * * * * * * * * * * * * * * * * * //

dimensions      [0 0 0 0 0 0 0];

internalField   nonuniform List<scalar> 
84
(
200.018
108.189
200.539
199.96
108.261
200.425
199.945
108.145
200.403
199.945
108.145
200.403
199.945
108.145
200.403
199.945
108.145
200.403
199.945
108.145
200.403
199.945
108.145
200.403
199.945
108.145
200.403
199.945
108.145
200.403
199.945
108.14
200.403
199.945
107.723
200.394
205.253
204.846
204.905
200.024
199.976
200.001
200.025
199.976
200.002
200.025
199.977
200
200.05
200.033
199.984
200.008
200.005
200.722
200.611
200.644
200.64
204.67
204.284
204.41
204.395
208.412
207.752
207.967
207.942
225.593
223.178
223.915
224.307
196.874
191.035
191.5
191.332
191.201
190.551
197.844
197.943
197.915
197.884
198.088
199.109
199.124
199.125
199.125
)
;

boundaryField
{
    inlet
    {
        type            calculated;
        value           uniform 0;
    }
    outlet2
    {
        type            calculated;
        value           uniform 0;
    }
    outlet1
    {
        type            calculated;
        value           nonuniform List<scalar> 0();
    }
    wall
    {
        type            calculated;
        value           uniform 0;
    }
    symmetryBottom
    {
        type            symmetry;
    }
    symmetryZ0
    {
        type            symmetry;
    }
    symmetryZ05
    {
        type            symmetry;
    }
    procBoundary1to0
    {
        type            processor;
        value           uniform 0;
    }
}


// ************************************************************************* //
