/*--------------------------------*- C++ -*----------------------------------*\
| =========                 |                                                 |
| \\      /  F ield         | OpenFOAM: The Open Source CFD Toolbox           |
|  \\    /   O peration     | Version:  2412                                  |
|   \\  /    A nd           | Website:  www.openfoam.com                      |
|    \\/     M anipulation  |                                                 |
\*---------------------------------------------------------------------------*/
FoamFile
{
    version     2.0;
    format      ascii;
    arch        "LSB;label=32;scalar=64";
    class       volVectorField;
    location    "4.8e-06";
    object      rhoU_dof0;
}
// * * * * * * * * * * * * * * * * * * * * * * * * * * * * * * * * * * * * * //

dimensions      [0 0 0 0 0 0 0];

internalField   nonuniform List<vector> 
84
(
(0.0741087 -3.79264e-07 0)
(0.0269506 -5.63195e-07 0)
(0.0352946 -4.65362e-07 -1.16323e-19)
(0.0741241 -0.000111367 0)
(0.0269671 -5.28144e-05 0)
(0.0353095 -6.44483e-05 -1.12416e-19)
(0.0741202 -0.000110991 0)
(0.026965 -5.26206e-05 0)
(0.035307 -6.42173e-05 1.52225e-19)
(0.0741202 -0.000110991 0)
(0.026965 -5.26206e-05 0)
(0.035307 -6.42173e-05 -1.97584e-19)
(0.0741202 -0.000110991 0)
(0.026965 -5.26206e-05 0)
(0.035307 -6.42173e-05 -3.08386e-19)
(0.0741202 -0.000110991 0)
(0.026965 -5.26206e-05 0)
(0.035307 -6.42173e-05 1.92819e-19)
(0.0741202 -0.000110991 0)
(0.026965 -5.26206e-05 0)
(0.035307 -6.42173e-05 -2.25689e-19)
(0.0741202 -0.000110991 0)
(0.026965 -5.26206e-05 0)
(0.035307 -6.42173e-05 -2.59208e-19)
(0.0741202 -0.000110991 0)
(0.026965 -5.26206e-05 0)
(0.035307 -6.42173e-05 1.13179e-19)
(0.0741202 -0.000110991 0)
(0.026965 -5.26206e-05 0)
(0.035307 -6.42173e-05 -2.23391e-19)
(0.0741202 -0.000110991 0)
(0.026965 -5.2618e-05 0)
(0.035307 -6.42157e-05 -5.87931e-19)
(0.0741204 -0.000111005 0)
(0.0269613 -5.22618e-05 0)
(0.0353048 -6.39949e-05 0)
(0.0560571 0.000107734 1.00339e-20)
(0.0542316 9.95205e-05 1.1451e-19)
(0.0545881 0.000100399 1.18611e-20)
(0.0586136 -0.000108926 9.6647e-21)
(0.0565934 -0.000106844 1.2504e-19)
(0.0569707 -0.000107395 -2.73828e-21)
(0.0583462 -0.000108467 -1.37939e-20)
(0.0563463 -0.000106399 -5.80547e-20)
(0.0567193 -0.000106854 -2.22527e-19)
(0.0580799 -0.000107996 1.76811e-20)
(0.0561002 -0.000105956 -2.86028e-21)
(0.0562375 -0.000107703 1.70503e-22)
(0.0541219 6.21305e-06 1.88122e-19)
(0.0578144 -0.000107554 -3.25501e-20)
(0.0558548 -0.000105538 7.11797e-22)
(0.0559872 -0.000107271 -1.90515e-21)
(0.0562503 -0.000107634 1.96346e-19)
(0.0575484 -0.000102556 -1.73935e-20)
(0.0556091 -0.000100941 -1.20792e-19)
(0.0557365 -0.000102598 6.03053e-21)
(0.0559988 -0.000102947 1.30986e-19)
(0.0572816 -8.10717e-05 2.0985e-20)
(0.0553624 -8.10371e-05 -1.76919e-21)
(0.055485 -8.22907e-05 -2.43715e-22)
(0.0557464 -8.25742e-05 -1.02917e-21)
(0.0570197 -6.76872e-05 2.59999e-20)
(0.0551203 -6.86228e-05 -1.23028e-19)
(0.0552381 -6.96371e-05 1.31632e-19)
(0.0554975 -6.98111e-05 1.6634e-21)
(0.0567477 -5.96541e-05 -9.72094e-21)
(0.0548681 -6.11598e-05 -1.8375e-19)
(0.0549808 -6.2006e-05 -1.69948e-19)
(0.0549877 -6.29161e-05 2.07425e-19)
(0.0542165 6.56847e-06 1.09902e-18)
(0.0565093 -5.84425e-05 2.22061e-20)
(0.0546499 -6.00255e-05 -1.79203e-19)
(0.0547582 -6.08215e-05 1.29919e-19)
(0.0547619 -6.16895e-05 2.56153e-19)
(0.0550241 -6.22397e-05 1.62175e-19)
(0.0562438 -6.67172e-05 5.4346e-20)
(0.054404 -6.76516e-05 -2.79843e-21)
(0.0545075 -6.86055e-05 3.30871e-22)
(0.0545082 -6.96557e-05 -2.72162e-22)
(0.0548272 -7.4148e-05 -1.89719e-19)
(0.0559899 -8.09213e-05 1.3233e-22)
(0.0541689 -8.07293e-05 1.74248e-19)
(0.0542679 -8.1934e-05 -1.36612e-20)
(0.0545248 -8.21863e-05 -2.57567e-19)
)
;

boundaryField
{
    inlet
    {
        type            calculated;
        value           uniform (0.0741049 0 0);
    }
    outlet2
    {
        type            calculated;
        value           uniform (0.0741049 0 0);
    }
    outlet1
    {
        type            calculated;
        value           nonuniform List<vector> 0();
    }
    wall
    {
        type            calculated;
        value           uniform (0.0741049 0 0);
    }
    symmetryBottom
    {
        type            symmetry;
    }
    symmetryZ0
    {
        type            symmetry;
    }
    symmetryZ05
    {
        type            symmetry;
    }
    procBoundary1to0
    {
        type            processor;
        value           uniform (0.0741049 0 0);
    }
}


// ************************************************************************* //
