/*--------------------------------*- C++ -*----------------------------------*\
| =========                 |                                                 |
| \\      /  F ield         | OpenFOAM: The Open Source CFD Toolbox           |
|  \\    /   O peration     | Version:  2412                                  |
|   \\  /    A nd           | Website:  www.openfoam.com                      |
|    \\/     M anipulation  |                                                 |
\*---------------------------------------------------------------------------*/
FoamFile
{
    version     2.0;
    format      ascii;
    arch        "LSB;label=32;scalar=64";
    class       volScalarField;
    location    "4.8e-06";
    object      T;
}
// * * * * * * * * * * * * * * * * * * * * * * * * * * * * * * * * * * * * * //

dimensions      [0 0 0 0 0 0 0];

internalField   nonuniform List<scalar> 
84
(
200.007
199.426
200.099
199.982
199.366
200.053
199.975
199.357
200.044
199.975
199.357
200.044
199.975
199.357
200.044
199.975
199.357
200.044
199.975
199.357
200.044
199.975
199.357
200.044
199.975
199.357
200.044
199.975
199.357
200.044
199.975
199.357
200.044
199.976
199.34
200.036
202.999
202.85
202.861
200.018
199.994
199.999
200.018
199.994
199.999
200.018
199.994
199.999
200.017
200.021
199.997
200.002
200.002
200.505
200.457
200.468
200.467
202.682
202.541
202.59
202.586
204.733
204.503
204.588
204.581
213.217
212.55
212.798
212.997
199.036
194.951
195.122
195.04
194.966
194.799
198.806
198.833
198.817
198.8
198.871
199.51
199.508
199.503
199.504
)
;

boundaryField
{
    inlet
    {
        type            calculated;
        value           uniform 0;
    }
    outlet2
    {
        type            calculated;
        value           uniform 0;
    }
    outlet1
    {
        type            calculated;
        value           nonuniform List<scalar> 0();
    }
    wall
    {
        type            calculated;
        value           uniform 0;
    }
    symmetryBottom
    {
        type            symmetry;
    }
    symmetryZ0
    {
        type            symmetry;
    }
    symmetryZ05
    {
        type            symmetry;
    }
    procBoundary1to0
    {
        type            processor;
        value           uniform 0;
    }
}


// ************************************************************************* //
