/*--------------------------------*- C++ -*----------------------------------*\
| =========                 |                                                 |
| \\      /  F ield         | OpenFOAM: The Open Source CFD Toolbox           |
|  \\    /   O peration     | Version:  2412                                  |
|   \\  /    A nd           | Website:  www.openfoam.com                      |
|    \\/     M anipulation  |                                                 |
\*---------------------------------------------------------------------------*/
FoamFile
{
    version     2.0;
    format      ascii;
    arch        "LSB;label=32;scalar=64";
    class       volVectorField;
    location    "4.8e-06";
    object      U;
}
// * * * * * * * * * * * * * * * * * * * * * * * * * * * * * * * * * * * * * //

dimensions      [0 0 0 0 0 0 0];

internalField   nonuniform List<vector> 
84
(
(2636.39 -0.0134922 0)
(2613.86 -0.0546226 0)
(2625.57 -0.0346183 -8.65328e-15)
(2636.39 -3.96103 0)
(2613.87 -5.1192 0)
(2625.57 -4.7923 -8.35913e-15)
(2636.39 -3.94783 0)
(2613.87 -5.10081 0)
(2625.57 -4.77545 1.132e-14)
(2636.39 -3.94783 0)
(2613.87 -5.10081 0)
(2625.57 -4.77545 -1.46932e-14)
(2636.39 -3.94783 0)
(2613.87 -5.10081 0)
(2625.57 -4.77545 -2.29328e-14)
(2636.39 -3.94783 0)
(2613.87 -5.10081 0)
(2625.57 -4.77545 1.43388e-14)
(2636.39 -3.94783 0)
(2613.87 -5.10081 0)
(2625.57 -4.77545 -1.67831e-14)
(2636.39 -3.94783 0)
(2613.87 -5.10081 0)
(2625.57 -4.77545 -1.92757e-14)
(2636.39 -3.94783 0)
(2613.87 -5.10081 0)
(2625.57 -4.77545 8.41644e-15)
(2636.39 -3.94783 0)
(2613.87 -5.10081 0)
(2625.57 -4.77545 -1.66123e-14)
(2636.39 -3.94784 0)
(2613.87 -5.10057 0)
(2625.57 -4.77533 -4.37209e-14)
(2636.39 -3.94834 0)
(2613.87 -5.06671 0)
(2625.57 -4.75921 0)
(2631.45 5.05731 4.71016e-16)
(2630.48 4.8272 5.55426e-15)
(2630.65 4.83833 5.71599e-16)
(2633.13 -4.89333 4.34173e-16)
(2632.08 -4.96918 5.81543e-15)
(2632.25 -4.96201 -1.26519e-16)
(2633.06 -4.89491 -6.22492e-16)
(2632.01 -4.97004 -2.71182e-15)
(2632.18 -4.9588 -1.03268e-14)
(2632.98 -4.89589 8.01552e-16)
(2631.94 -4.97094 -1.3419e-16)
(2632.04 -5.04075 7.97995e-18)
(2631.39 0.302077 9.14641e-15)
(2632.91 -4.89807 -1.48235e-15)
(2631.88 -4.97296 3.35398e-17)
(2631.97 -5.04284 -8.95615e-17)
(2632.05 -5.03637 9.18734e-15)
(2632.81 -4.69188 -7.95741e-16)
(2631.78 -4.77718 -5.71664e-15)
(2631.88 -4.84467 2.84761e-16)
(2631.95 -4.83852 6.15634e-15)
(2632.64 -3.72603 9.64464e-16)
(2631.61 -3.85204 -8.4097e-17)
(2631.7 -3.90312 -1.15596e-17)
(2631.78 -3.89831 -4.85871e-17)
(2632.53 -3.12503 1.20038e-15)
(2631.49 -3.27612 -5.87345e-15)
(2631.58 -3.31757 6.27106e-15)
(2631.66 -3.31041 7.88775e-17)
(2632.41 -2.76723 -4.50935e-16)
(2631.33 -2.93307 -8.8122e-15)
(2631.43 -2.96766 -8.13385e-15)
(2631.42 -3.01083 9.92625e-15)
(2631.37 0.318798 5.33405e-14)
(2632.47 -2.72253 1.03446e-15)
(2631.5 -2.89035 -8.62901e-15)
(2631.59 -2.92298 6.24368e-15)
(2631.59 -2.96449 1.23095e-14)
(2631.67 -2.97677 7.75643e-15)
(2632.41 -3.12261 2.54359e-15)
(2631.43 -3.27219 -1.35355e-16)
(2631.51 -3.31214 1.59738e-17)
(2631.51 -3.36279 -1.31393e-17)
(2631.6 -3.55897 -9.10615e-15)
(2632.37 -3.80452 6.22152e-18)
(2631.38 -3.92161 8.46453e-15)
(2631.47 -3.973 -6.62433e-16)
(2631.54 -3.96658 -1.2431e-14)
)
;

boundaryField
{
    inlet
    {
        type            calculated;
        value           uniform (0 0 0);
    }
    outlet2
    {
        type            calculated;
        value           uniform (0 0 0);
    }
    outlet1
    {
        type            calculated;
        value           nonuniform List<vector> 0();
    }
    wall
    {
        type            calculated;
        value           uniform (0 0 0);
    }
    symmetryBottom
    {
        type            symmetry;
    }
    symmetryZ0
    {
        type            symmetry;
    }
    symmetryZ05
    {
        type            symmetry;
    }
    procBoundary1to0
    {
        type            processor;
        value           uniform (0 0 0);
    }
}


// ************************************************************************* //
