/*--------------------------------*- C++ -*----------------------------------*\
| =========                 |                                                 |
| \\      /  F ield         | OpenFOAM: The Open Source CFD Toolbox           |
|  \\    /   O peration     | Version:  2412                                  |
|   \\  /    A nd           | Website:  www.openfoam.com                      |
|    \\/     M anipulation  |                                                 |
\*---------------------------------------------------------------------------*/
FoamFile
{
    version     2.0;
    format      ascii;
    arch        "LSB;label=32;scalar=64";
    class       volScalarField;
    location    "6.1e-06";
    object      E;
}
// * * * * * * * * * * * * * * * * * * * * * * * * * * * * * * * * * * * * * //

dimensions      [0 0 0 0 0 0 0];

internalField   nonuniform List<scalar> 
84
(
96.9157
63.7899
67.1037
66.8894
66.9041
66.9078
66.9122
67.3794
102.468
67.5368
71.0903
70.9253
71.0032
71.0717
71.1428
71.6321
101.407
67.6028
70.6116
70.5029
70.5695
70.6311
70.6948
71.1819
100.986
66.8156
70.3016
70.1277
70.1935
70.2495
70.7344
100.798
66.3912
69.8795
69.6987
69.7575
69.8063
70.2888
100.213
65.9956
69.4579
69.2716
69.3234
69.365
69.8453
99.6397
65.611
69.0456
68.8543
68.8992
68.9338
69.4119
98.8307
65.4903
68.6128
68.4504
68.4864
68.5144
68.9903
98.3699
64.9166
68.2906
68.0903
68.1231
68.5966
97.8822
64.4253
67.7842
67.5773
67.6021
68.0727
97.2095
64.0646
67.3818
67.1707
67.1886
67.6572
96.1332
63.8163
66.9684
66.7673
66.7779
66.7785
67.2454
)
;

boundaryField
{
    inlet
    {
        type            calculated;
        value           nonuniform List<scalar> 0();
    }
    outlet2
    {
        type            calculated;
        value           uniform 0;
    }
    outlet1
    {
        type            calculated;
        value           uniform 0;
    }
    wall
    {
        type            calculated;
        value           uniform 0;
    }
    symmetryBottom
    {
        type            symmetry;
    }
    symmetryZ0
    {
        type            symmetry;
    }
    symmetryZ05
    {
        type            symmetry;
    }
    procBoundary0to1
    {
        type            processor;
        value           uniform 0;
    }
}


// ************************************************************************* //
