/*--------------------------------*- C++ -*----------------------------------*\
| =========                 |                                                 |
| \\      /  F ield         | OpenFOAM: The Open Source CFD Toolbox           |
|  \\    /   O peration     | Version:  2412                                  |
|   \\  /    A nd           | Website:  www.openfoam.com                      |
|    \\/     M anipulation  |                                                 |
\*---------------------------------------------------------------------------*/
FoamFile
{
    version     2.0;
    format      ascii;
    arch        "LSB;label=32;scalar=64";
    class       volScalarField;
    location    "6.1e-06";
    object      T;
}
// * * * * * * * * * * * * * * * * * * * * * * * * * * * * * * * * * * * * * //

dimensions      [0 0 0 0 0 0 0];

internalField   nonuniform List<scalar> 
84
(
203.706
203.756
203.869
203.92
203.981
204.043
204.108
204.101
199.978
199.947
200.005
199.997
199.997
199.997
199.997
199.998
199.956
199.949
200.004
199.997
199.997
199.997
199.997
199.998
199.984
199.945
200.006
199.997
199.997
199.997
199.998
199.984
199.949
200.011
200.002
200.003
200.003
200.003
200.512
200.518
200.576
200.573
200.578
200.583
200.582
203.295
203.396
203.487
203.533
203.587
203.643
203.637
205.753
206.202
206.219
206.323
206.423
206.527
206.515
215.812
218.137
218.236
218.569
218.907
218.862
193.338
193.174
193.136
193.014
192.898
192.912
198.292
198.345
198.362
198.326
198.299
198.303
199.833
199.237
199.329
199.308
199.297
199.285
199.287
)
;

boundaryField
{
    inlet
    {
        type            calculated;
        value           nonuniform List<scalar> 0();
    }
    outlet2
    {
        type            calculated;
        value           uniform 0;
    }
    outlet1
    {
        type            calculated;
        value           uniform 0;
    }
    wall
    {
        type            calculated;
        value           uniform 0;
    }
    symmetryBottom
    {
        type            symmetry;
    }
    symmetryZ0
    {
        type            symmetry;
    }
    symmetryZ05
    {
        type            symmetry;
    }
    procBoundary0to1
    {
        type            processor;
        value           uniform 0;
    }
}


// ************************************************************************* //
