/*--------------------------------*- C++ -*----------------------------------*\
| =========                 |                                                 |
| \\      /  F ield         | OpenFOAM: The Open Source CFD Toolbox           |
|  \\    /   O peration     | Version:  2412                                  |
|   \\  /    A nd           | Website:  www.openfoam.com                      |
|    \\/     M anipulation  |                                                 |
\*---------------------------------------------------------------------------*/
FoamFile
{
    version     2.0;
    format      ascii;
    arch        "LSB;label=32;scalar=64";
    class       volVectorField;
    location    "8.6e-06";
    object      rhoU_dof0;
}
// * * * * * * * * * * * * * * * * * * * * * * * * * * * * * * * * * * * * * //

dimensions      [0 0 0 0 0 0 0];

internalField   nonuniform List<vector> 
84
(
(0.086689 1.72088e-07 -3.10094e-21)
(0.00869969 -4.3134e-07 2.33317e-20)
(0.0150332 5.27939e-08 -1.23364e-19)
(0.0867154 -0.000240678 -3.28437e-21)
(0.00875296 -3.51751e-05 2.46264e-20)
(0.0145781 -4.97243e-05 -1.29212e-19)
(0.0867312 -0.000240723 4.31733e-21)
(0.00874961 -3.52031e-05 -3.23139e-20)
(0.0146373 -4.95344e-05 1.69395e-19)
(0.0867317 -0.000240731 -5.63808e-21)
(0.00874348 -3.51857e-05 4.21489e-20)
(0.0146964 -4.97187e-05 -2.22998e-19)
(0.0867322 -0.000240732 -1.0021e-20)
(0.00873737 -3.51668e-05 7.44235e-20)
(0.0147555 -4.99058e-05 -3.83444e-19)
(0.0867328 -0.000240734 5.489e-21)
(0.00873127 -3.51481e-05 -4.07397e-20)
(0.0148142 -5.0091e-05 2.13453e-19)
(0.0867333 -0.000240735 -7.34712e-21)
(0.0087252 -3.51294e-05 5.48942e-20)
(0.0148726 -5.02753e-05 -2.87797e-19)
(0.0867338 -0.000240737 -8.52827e-21)
(0.00871916 -3.51108e-05 6.36469e-20)
(0.0149307 -5.04587e-05 -3.33883e-19)
(0.0867344 -0.000240739 3.17473e-21)
(0.00871314 -3.50922e-05 -2.36305e-20)
(0.0149885 -5.06412e-05 1.22486e-19)
(0.0867349 -0.00024074 -7.24402e-21)
(0.00870713 -3.50738e-05 5.46589e-20)
(0.015046 -5.08227e-05 -2.91796e-19)
(0.0867354 -0.000240742 -1.87809e-20)
(0.00870113 -3.50552e-05 1.41066e-19)
(0.0151032 -5.10033e-05 -7.44286e-19)
(0.0867363 -0.000240946 5.19153e-24)
(0.00869509 -3.46472e-05 -1.10343e-22)
(0.0151601 -5.08759e-05 1.77067e-21)
(0.0454325 -2.74778e-06 -1.5977e-21)
(0.0430151 -2.63231e-06 1.82308e-19)
(0.0412696 -2.55323e-06 -1.59174e-20)
(0.0484306 -0.000158681 -1.03801e-21)
(0.0457618 -0.000152717 1.86475e-19)
(0.0438968 -0.0001459 -1.90945e-20)
(0.048087 -0.000160239 -1.04174e-20)
(0.0454464 -0.000154118 -6.61354e-20)
(0.0436262 -0.000148846 -2.70829e-19)
(0.0477019 -0.000159039 1.99813e-20)
(0.0450039 -0.000152039 -3.52751e-21)
(0.0455337 -0.000168427 -2.4442e-20)
(0.0393818 4.28116e-05 3.4946e-19)
(0.0473165 -0.00015777 -5.16697e-20)
(0.0446637 -0.000151408 1.74675e-21)
(0.0449152 -0.000154864 -2.41736e-20)
(0.0429089 -0.000144007 3.1444e-19)
(0.0469344 -0.000156526 -7.0513e-21)
(0.0443151 -0.000150266 -1.83341e-19)
(0.0445541 -0.000153382 -6.57232e-21)
(0.0426141 -0.000146073 2.1623e-19)
(0.0465553 -0.000155292 2.52139e-20)
(0.0439689 -0.000149119 -3.24151e-21)
(0.0441997 -0.000152187 -1.72227e-21)
(0.0422775 -0.000144984 -2.58843e-22)
(0.0461791 -0.000154068 4.40294e-20)
(0.0436254 -0.000147983 -1.96475e-19)
(0.0438476 -0.000150952 1.9157e-19)
(0.0419564 -0.000145173 9.51972e-22)
(0.0458059 -0.000152852 8.31514e-21)
(0.0432866 -0.000146883 -2.5134e-19)
(0.0434225 -0.000148861 -2.63011e-19)
(0.0436286 -0.000164428 1.6436e-19)
(0.0398719 4.20024e-05 1.7449e-18)
(0.0454355 -0.000151646 4.5932e-20)
(0.0429483 -0.000145746 -2.80099e-19)
(0.0430825 -0.000148233 1.71896e-19)
(0.0431611 -0.000150956 4.15295e-19)
(0.0412799 -0.000142392 2.86592e-19)
(0.045068 -0.000150449 6.86124e-20)
(0.0426126 -0.000144632 -3.872e-21)
(0.0427403 -0.000147126 9.64301e-23)
(0.0428094 -0.000148656 1.73691e-20)
(0.0409911 -0.000156681 -2.30084e-19)
(0.0447036 -0.000149215 -1.91534e-20)
(0.0422781 -0.000143439 2.73323e-19)
(0.0424675 -0.000145599 1.17951e-20)
(0.040675 -0.000155337 -4.40705e-19)
)
;

boundaryField
{
    inlet
    {
        type            calculated;
        value           uniform (0.0741049 0 0);
    }
    outlet2
    {
        type            calculated;
        value           uniform (0.0741049 0 0);
    }
    outlet1
    {
        type            calculated;
        value           nonuniform List<vector> 0();
    }
    wall
    {
        type            calculated;
        value           uniform (0.0741049 0 0);
    }
    symmetryBottom
    {
        type            symmetry;
    }
    symmetryZ0
    {
        type            symmetry;
    }
    symmetryZ05
    {
        type            symmetry;
    }
    procBoundary1to0
    {
        type            processor;
        value           uniform (0.0741049 0 0);
    }
}


// ************************************************************************* //
