/*--------------------------------*- C++ -*----------------------------------*\
| =========                 |                                                 |
| \\      /  F ield         | OpenFOAM: The Open Source CFD Toolbox           |
|  \\    /   O peration     | Version:  2412                                  |
|   \\  /    A nd           | Website:  www.openfoam.com                      |
|    \\/     M anipulation  |                                                 |
\*---------------------------------------------------------------------------*/
FoamFile
{
    version     2.0;
    format      ascii;
    arch        "LSB;label=32;scalar=64";
    class       volVectorField;
    location    "8.6e-06";
    object      U;
}
// * * * * * * * * * * * * * * * * * * * * * * * * * * * * * * * * * * * * * //

dimensions      [0 0 0 0 0 0 0];

internalField   nonuniform List<vector> 
84
(
(2640.32 0.00524137 -9.44465e-17)
(2563.42 -0.127097 6.87483e-15)
(2605.83 0.00915119 -2.13837e-14)
(2640.32 -7.3282 -1.00003e-16)
(2564.02 -10.3039 7.21386e-15)
(2604.04 -8.88212 -2.30809e-14)
(2640.32 -7.32821 1.31431e-16)
(2563.95 -10.3158 -9.46914e-15)
(2604.25 -8.81311 3.01385e-14)
(2640.32 -7.32842 -1.71637e-16)
(2563.88 -10.3176 1.23594e-14)
(2604.47 -8.81104 -3.95192e-14)
(2640.32 -7.32842 -3.05061e-16)
(2563.8 -10.319 2.1838e-14)
(2604.69 -8.80956 -6.76871e-14)
(2640.32 -7.32843 1.67096e-16)
(2563.73 -10.3204 -1.19622e-14)
(2604.91 -8.80796 3.75333e-14)
(2640.32 -7.32843 -2.2366e-16)
(2563.65 -10.3218 1.61291e-14)
(2605.13 -8.80637 -5.04113e-14)
(2640.32 -7.32843 -2.59615e-16)
(2563.58 -10.3232 1.87132e-14)
(2605.34 -8.80481 -5.8261e-14)
(2640.32 -7.32844 9.66434e-17)
(2563.5 -10.3245 -6.95237e-15)
(2605.55 -8.80327 2.12924e-14)
(2640.32 -7.32844 -2.20517e-16)
(2563.43 -10.3259 1.60919e-14)
(2605.75 -8.80174 -5.05347e-14)
(2640.32 -7.32845 -5.71712e-16)
(2563.36 -10.3273 4.1558e-14)
(2605.95 -8.80024 -1.28421e-13)
(2640.32 -7.3346 1.58034e-19)
(2563.28 -10.2139 -3.25287e-17)
(2606.15 -8.746 3.04393e-16)
(2628.99 -0.159003 -9.24523e-17)
(2627.35 -0.160781 1.11353e-14)
(2625.65 -0.162441 -1.0127e-15)
(2630.42 -8.6185 -5.63779e-17)
(2628.73 -8.77267 1.07118e-14)
(2627.05 -8.73153 -1.14273e-15)
(2630.32 -8.76495 -5.69824e-16)
(2628.63 -8.91423 -3.82528e-15)
(2626.98 -8.96288 -1.63081e-14)
(2630.19 -8.76911 1.10173e-15)
(2628.4 -8.87966 -2.0602e-16)
(2628.86 -9.72403 -1.41114e-15)
(2624.84 2.85345 2.32919e-14)
(2630.06 -8.76954 -2.87203e-15)
(2628.29 -8.90976 1.02789e-16)
(2628.54 -9.06301 -1.4147e-15)
(2626.68 -8.81539 1.92485e-14)
(2629.93 -8.7708 -3.95113e-16)
(2628.16 -8.91171 -1.08733e-14)
(2628.41 -9.04855 -3.87726e-16)
(2626.58 -9.00341 1.33276e-14)
(2629.79 -8.77208 1.42427e-15)
(2628.04 -8.91292 -1.93746e-16)
(2628.28 -9.04962 -1.02413e-16)
(2626.45 -9.00699 -1.60804e-17)
(2629.66 -8.77336 2.50724e-15)
(2627.92 -8.9142 -1.18353e-14)
(2628.16 -9.04782 1.14824e-14)
(2626.34 -9.08742 5.95906e-17)
(2629.53 -8.7746 4.77339e-16)
(2627.79 -8.91683 -1.52581e-14)
(2627.93 -9.00908 -1.59175e-14)
(2628.12 -9.90487 9.90079e-15)
(2625.32 2.7656 1.14891e-13)
(2629.4 -8.77591 2.65813e-15)
(2627.67 -8.91705 -1.71371e-14)
(2627.81 -9.04142 1.04847e-14)
(2627.9 -9.19108 2.52856e-14)
(2626.08 -9.05844 1.82319e-14)
(2629.27 -8.7772 4.00285e-15)
(2627.55 -8.91818 -2.38752e-16)
(2627.68 -9.04536 5.92854e-18)
(2627.77 -9.12497 1.06616e-15)
(2625.99 -10.0374 -1.47398e-14)
(2629.13 -8.77569 -1.12646e-15)
(2627.42 -8.91421 1.6986e-14)
(2627.65 -9.00882 7.29814e-16)
(2625.86 -10.0282 -2.84507e-14)
)
;

boundaryField
{
    inlet
    {
        type            calculated;
        value           uniform (0 0 0);
    }
    outlet2
    {
        type            calculated;
        value           uniform (0 0 0);
    }
    outlet1
    {
        type            calculated;
        value           nonuniform List<vector> 0();
    }
    wall
    {
        type            calculated;
        value           uniform (0 0 0);
    }
    symmetryBottom
    {
        type            symmetry;
    }
    symmetryZ0
    {
        type            symmetry;
    }
    symmetryZ05
    {
        type            symmetry;
    }
    procBoundary1to0
    {
        type            processor;
        value           uniform (0 0 0);
    }
}


// ************************************************************************* //
