/*--------------------------------*- C++ -*----------------------------------*\
| =========                 |                                                 |
| \\      /  F ield         | OpenFOAM: The Open Source CFD Toolbox           |
|  \\    /   O peration     | Version:  2412                                  |
|   \\  /    A nd           | Website:  www.openfoam.com                      |
|    \\/     M anipulation  |                                                 |
\*---------------------------------------------------------------------------*/
FoamFile
{
    version     2.0;
    format      ascii;
    arch        "LSB;label=32;scalar=64";
    class       volScalarField;
    location    "2e-07";
    object      E_dof0;
}
// * * * * * * * * * * * * * * * * * * * * * * * * * * * * * * * * * * * * * //

dimensions      [0 0 0 0 0 0 0];

internalField   nonuniform List<scalar> 
84
(
99.4488
98.138
98.1402
98.1402
98.1403
98.1403
98.1403
98.1607
99.6342
98.3249
98.3299
98.3328
98.3358
98.3388
98.342
98.3624
99.6152
98.306
98.3107
98.3133
98.316
98.3188
98.3216
98.342
99.599
98.2894
98.2939
98.2963
98.2987
98.3012
98.3216
99.5803
98.2702
98.2744
98.2765
98.2786
98.2809
98.3012
99.5614
98.2512
98.2551
98.2569
98.2587
98.2606
98.281
99.543
98.2326
98.2362
98.2377
98.2393
98.2408
98.2612
99.5245
98.214
98.2174
98.2186
98.2199
98.2212
98.2415
99.5093
98.1985
98.2017
98.2027
98.2037
98.2241
99.4842
98.173
98.1758
98.1763
98.1769
98.1973
99.4664
98.1551
98.1575
98.1578
98.1582
98.1785
99.4284
98.136
98.1381
98.1381
98.1381
98.1381
98.1585
)
;

boundaryField
{
    inlet
    {
        type            calculated;
        value           nonuniform List<scalar> 0();
    }
    outlet2
    {
        type            calculated;
        value           uniform 99.4306;
    }
    outlet1
    {
        type            calculated;
        value           uniform 99.4306;
    }
    wall
    {
        type            calculated;
        value           uniform 99.4306;
    }
    symmetryBottom
    {
        type            symmetry;
    }
    symmetryZ0
    {
        type            symmetry;
    }
    symmetryZ05
    {
        type            symmetry;
    }
    procBoundary0to1
    {
        type            processor;
        value           uniform 99.4306;
    }
}


// ************************************************************************* //
