/*--------------------------------*- C++ -*----------------------------------*\
| =========                 |                                                 |
| \\      /  F ield         | OpenFOAM: The Open Source CFD Toolbox           |
|  \\    /   O peration     | Version:  2412                                  |
|   \\  /    A nd           | Website:  www.openfoam.com                      |
|    \\/     M anipulation  |                                                 |
\*---------------------------------------------------------------------------*/
FoamFile
{
    version     2.0;
    format      ascii;
    arch        "LSB;label=32;scalar=64";
    class       volVectorField;
    location    "2e-07";
    object      rhoU;
}
// * * * * * * * * * * * * * * * * * * * * * * * * * * * * * * * * * * * * * //

dimensions      [0 0 0 0 0 0 0];

internalField   nonuniform List<vector> 
84
(
(0.0741186 5.98817e-06 5.56958e-21)
(0.0731473 6.02643e-06 -5.45994e-21)
(0.0731489 6.11593e-06 -1.63841e-20)
(0.0731489 6.20812e-06 8.65485e-21)
(0.073149 6.30313e-06 1.94306e-22)
(0.073149 6.4011e-06 8.47832e-22)
(0.073149 6.50216e-06 1.40898e-20)
(0.0731641 6.50283e-06 3.98601e-21)
(0.0742558 -5.94291e-06 5.47315e-21)
(0.0732855 -6.00079e-06 -6.82764e-21)
(0.0732892 -6.08996e-06 -1.92611e-20)
(0.0732914 -6.18181e-06 2.36399e-22)
(0.0732936 -6.27648e-06 -3.25882e-20)
(0.0732959 -6.37409e-06 3.16326e-21)
(0.0732982 -6.47479e-06 2.6688e-20)
(0.0733133 -6.47512e-06 6.00079e-21)
(0.0742417 -5.93306e-06 -2.97724e-20)
(0.0732715 -6.00051e-06 5.50205e-21)
(0.073275 -6.08966e-06 1.10601e-20)
(0.0732769 -6.18151e-06 -1.20827e-22)
(0.0732789 -6.27617e-06 -1.04105e-22)
(0.073281 -6.37377e-06 1.29254e-20)
(0.0732831 -6.47446e-06 -1.0215e-20)
(0.0732982 -6.47479e-06 -1.34751e-20)
(0.0742297 -6.01978e-06 -2.86183e-20)
(0.0732592 -6.08937e-06 1.38799e-20)
(0.0732625 -6.18121e-06 -1.25064e-22)
(0.0732643 -6.27586e-06 -3.00501e-20)
(0.0732661 -6.37345e-06 2.75589e-20)
(0.073268 -6.47413e-06 8.88554e-21)
(0.0732831 -6.47446e-06 -1.04204e-20)
(0.0742158 -6.02907e-06 -1.63462e-20)
(0.073245 -6.08892e-06 -6.99367e-21)
(0.0732481 -6.18075e-06 9.22876e-24)
(0.0732497 -6.27538e-06 0)
(0.0732512 -6.37297e-06 -8.58272e-21)
(0.0732529 -6.47363e-06 8.83959e-21)
(0.073268 -6.47396e-06 2.06261e-20)
(0.0742017 -5.71302e-06 -9.53203e-21)
(0.0732308 -5.76866e-06 1.66197e-20)
(0.0732337 -5.85566e-06 -2.71892e-23)
(0.073235 -5.94532e-06 1.99619e-20)
(0.0732364 -6.03776e-06 -1.74089e-20)
(0.0732378 -6.13313e-06 1.32643e-20)
(0.0732529 -6.13346e-06 -3.09381e-20)
(0.0741876 -4.61096e-06 -7.92743e-26)
(0.0732165 -4.65355e-06 1.65509e-20)
(0.0732192 -4.72373e-06 -2.71063e-23)
(0.0732203 -4.79606e-06 -5.21066e-23)
(0.0732214 -4.87064e-06 1.74287e-20)
(0.0732226 -4.94757e-06 2.85937e-21)
(0.0732377 -4.94788e-06 1.77325e-20)
(0.0741734 -3.87853e-06 -4.35864e-23)
(0.0732023 -3.91961e-06 -1.44012e-23)
(0.0732047 -3.97873e-06 -5.12859e-23)
(0.0732056 -4.03966e-06 -1.48427e-23)
(0.0732065 -4.10248e-06 1.51838e-23)
(0.0732075 -4.16728e-06 -1.54239e-23)
(0.0732226 -4.16758e-06 -1.32968e-20)
(0.0741601 -3.59073e-06 3.19256e-20)
(0.0731887 -3.62595e-06 -5.87037e-23)
(0.073191 -3.6815e-06 -3.27942e-20)
(0.0731917 -3.73877e-06 -1.43748e-20)
(0.0731924 -3.79786e-06 1.62043e-20)
(0.0732075 -3.79816e-06 -9.29406e-24)
(0.074146 -3.63307e-06 -1.38456e-20)
(0.0731744 -3.66172e-06 2.26999e-23)
(0.0731765 -3.71774e-06 -1.57066e-20)
(0.0731769 -3.77551e-06 1.74123e-20)
(0.0731774 -3.8351e-06 3.08546e-20)
(0.0731925 -3.83543e-06 0)
(0.0741318 -4.06699e-06 -1.66214e-20)
(0.0731601 -4.09895e-06 2.72039e-23)
(0.0731619 -4.16168e-06 4.51276e-24)
(0.0731621 -4.22636e-06 3.03936e-20)
(0.0731624 -4.29307e-06 3.37763e-20)
(0.0731774 -4.29345e-06 4.41913e-21)
(0.0741033 -1.20883e-08 -2.60062e-23)
(0.0731457 -4.86638e-06 0)
(0.0731473 -4.92857e-06 0)
(0.0731473 -5.00399e-06 1.99667e-20)
(0.0731473 -5.08176e-06 -4.06068e-23)
(0.0731473 -5.16198e-06 1.30274e-26)
(0.0731624 -5.16249e-06 -1.62034e-20)
)
;

boundaryField
{
    inlet
    {
        type            calculated;
        value           nonuniform List<vector> 0();
    }
    outlet2
    {
        type            calculated;
        value           uniform (0 0 0);
    }
    outlet1
    {
        type            calculated;
        value           uniform (0 0 0);
    }
    wall
    {
        type            calculated;
        value           uniform (0 0 0);
    }
    symmetryBottom
    {
        type            symmetry;
    }
    symmetryZ0
    {
        type            symmetry;
    }
    symmetryZ05
    {
        type            symmetry;
    }
    procBoundary0to1
    {
        type            processor;
        value           uniform (0 0 0);
    }
}


// ************************************************************************* //
