/*--------------------------------*- C++ -*----------------------------------*\
| =========                 |                                                 |
| \\      /  F ield         | OpenFOAM: The Open Source CFD Toolbox           |
|  \\    /   O peration     | Version:  2412                                  |
|   \\  /    A nd           | Website:  www.openfoam.com                      |
|    \\/     M anipulation  |                                                 |
\*---------------------------------------------------------------------------*/
FoamFile
{
    version     2.0;
    format      ascii;
    arch        "LSB;label=32;scalar=64";
    class       volVectorField;
    location    "2e-07";
    object      U;
}
// * * * * * * * * * * * * * * * * * * * * * * * * * * * * * * * * * * * * * //

dimensions      [0 0 0 0 0 0 0];

internalField   nonuniform List<vector> 
84
(
(2636.35 0.212995 1.98106e-16)
(2636.14 0.217186 -1.9677e-16)
(2636.14 0.220406 -5.90449e-16)
(2636.14 0.223728 3.11903e-16)
(2636.14 0.227152 7.0024e-18)
(2636.14 0.230683 3.05541e-17)
(2636.14 0.234324 5.07766e-16)
(2636.14 0.2343 1.43618e-16)
(2636.42 -0.211 1.94322e-16)
(2636.21 -0.215859 -2.45603e-16)
(2636.21 -0.219056 -6.92824e-16)
(2636.21 -0.222353 8.50301e-18)
(2636.21 -0.225752 -1.17213e-15)
(2636.21 -0.229256 1.13772e-16)
(2636.22 -0.23287 9.59852e-16)
(2636.22 -0.232834 2.15778e-16)
(2636.42 -0.21069 -1.05725e-15)
(2636.21 -0.21589 1.97956e-16)
(2636.21 -0.219087 3.97907e-16)
(2636.21 -0.222386 -4.34687e-18)
(2636.21 -0.225785 -3.74517e-18)
(2636.21 -0.22929 4.64979e-16)
(2636.21 -0.232906 -3.67462e-16)
(2636.22 -0.23287 -4.84641e-16)
(2636.41 -0.213804 -1.01643e-15)
(2636.21 -0.219124 4.99464e-16)
(2636.21 -0.222419 -4.5002e-18)
(2636.21 -0.225819 -1.08127e-15)
(2636.21 -0.229325 9.91603e-16)
(2636.21 -0.232942 3.19705e-16)
(2636.21 -0.232906 -3.74854e-16)
(2636.41 -0.214174 -5.80677e-16)
(2636.2 -0.21915 -2.51713e-16)
(2636.2 -0.222445 3.32144e-19)
(2636.2 -0.225847 0)
(2636.21 -0.229354 -3.0888e-16)
(2636.21 -0.232971 3.18117e-16)
(2636.21 -0.232936 7.42135e-16)
(2636.41 -0.202985 -3.38675e-16)
(2636.2 -0.207663 5.98285e-16)
(2636.2 -0.210787 -9.78733e-19)
(2636.2 -0.21401 7.18557e-16)
(2636.2 -0.217334 -6.26647e-16)
(2636.2 -0.220763 4.7745e-16)
(2636.2 -0.220729 -1.11339e-15)
(2636.4 -0.16386 -2.81717e-21)
(2636.19 -0.167553 5.95923e-16)
(2636.19 -0.170074 -9.7594e-19)
(2636.19 -0.172675 -1.87603e-18)
(2636.19 -0.175358 6.27488e-16)
(2636.19 -0.178125 1.02945e-16)
(2636.2 -0.178099 6.38282e-16)
(2636.4 -0.137857 -1.54922e-18)
(2636.19 -0.141155 -5.1862e-19)
(2636.19 -0.143279 -1.84687e-18)
(2636.19 -0.145471 -5.34495e-19)
(2636.19 -0.147731 5.46773e-19)
(2636.19 -0.150063 -5.55412e-19)
(2636.19 -0.150043 -4.78719e-16)
(2636.39 -0.127651 1.13495e-15)
(2636.19 -0.130603 -2.11445e-18)
(2636.19 -0.1326 -1.18118e-15)
(2636.19 -0.134661 -5.17744e-16)
(2636.19 -0.136788 5.83635e-16)
(2636.19 -0.136771 -3.34678e-19)
(2636.39 -0.12918 -4.92305e-16)
(2636.18 -0.131917 8.17788e-19)
(2636.19 -0.133932 -5.65832e-16)
(2636.19 -0.136012 6.27275e-16)
(2636.19 -0.138158 1.11153e-15)
(2636.19 -0.138141 0)
(2636.39 -0.144637 -5.91117e-16)
(2636.18 -0.147698 9.8024e-19)
(2636.18 -0.149955 1.62605e-19)
(2636.18 -0.152284 1.09514e-15)
(2636.18 -0.154688 1.21703e-15)
(2636.19 -0.15467 1.59197e-16)
(2636.39 -0.000430069 -9.25228e-19)
(2636.18 -0.175385 0)
(2636.18 -0.177623 0)
(2636.18 -0.180341 7.19587e-16)
(2636.18 -0.183143 -1.46345e-18)
(2636.18 -0.186034 4.69499e-22)
(2636.19 -0.186015 -5.8384e-16)
)
;

boundaryField
{
    inlet
    {
        type            calculated;
        value           nonuniform List<vector> 0();
    }
    outlet2
    {
        type            calculated;
        value           uniform (0 0 0);
    }
    outlet1
    {
        type            calculated;
        value           uniform (0 0 0);
    }
    wall
    {
        type            calculated;
        value           uniform (0 0 0);
    }
    symmetryBottom
    {
        type            symmetry;
    }
    symmetryZ0
    {
        type            symmetry;
    }
    symmetryZ05
    {
        type            symmetry;
    }
    procBoundary0to1
    {
        type            processor;
        value           uniform (0 0 0);
    }
}


// ************************************************************************* //
