/*--------------------------------*- C++ -*----------------------------------*\
| =========                 |                                                 |
| \\      /  F ield         | OpenFOAM: The Open Source CFD Toolbox           |
|  \\    /   O peration     | Version:  2412                                  |
|   \\  /    A nd           | Website:  www.openfoam.com                      |
|    \\/     M anipulation  |                                                 |
\*---------------------------------------------------------------------------*/
FoamFile
{
    version     2.0;
    format      ascii;
    arch        "LSB;label=32;scalar=64";
    class       volScalarField;
    location    "2e-07";
    object      E_dof0;
}
// * * * * * * * * * * * * * * * * * * * * * * * * * * * * * * * * * * * * * //

dimensions      [0 0 0 0 0 0 0];

internalField   nonuniform List<scalar> 
84
(
99.4306
96.2609
96.2737
99.4306
96.2613
96.2741
99.4306
96.2613
96.2741
99.4306
96.2613
96.2741
99.4306
96.2613
96.2741
99.4306
96.2613
96.2741
99.4306
96.2613
96.2741
99.4306
96.2613
96.2741
99.4306
96.2613
96.2741
99.4306
96.2613
96.2741
99.4306
96.2613
96.2741
99.4306
96.2611
96.2739
98.1432
98.1401
98.1582
98.3201
98.3191
98.3372
98.3022
98.3011
98.3191
98.2843
98.283
98.285
98.1382
98.2665
98.2649
98.2667
98.285
98.2487
98.2469
98.2485
98.2668
98.2314
98.2293
98.2306
98.249
98.2141
98.2119
98.2129
98.2313
98.1988
98.1964
98.1972
98.198
98.1383
98.1753
98.1726
98.1731
98.1736
98.1922
98.1588
98.1559
98.1562
98.1564
98.175
98.1413
98.1381
98.1381
98.1565
)
;

boundaryField
{
    inlet
    {
        type            calculated;
        value           uniform 99.4306;
    }
    outlet2
    {
        type            calculated;
        value           uniform 99.4306;
    }
    outlet1
    {
        type            calculated;
        value           nonuniform List<scalar> 0();
    }
    wall
    {
        type            calculated;
        value           uniform 99.4306;
    }
    symmetryBottom
    {
        type            symmetry;
    }
    symmetryZ0
    {
        type            symmetry;
    }
    symmetryZ05
    {
        type            symmetry;
    }
    procBoundary1to0
    {
        type            processor;
        value           uniform 99.4306;
    }
}


// ************************************************************************* //
