/*--------------------------------*- C++ -*----------------------------------*\
| =========                 |                                                 |
| \\      /  F ield         | OpenFOAM: The Open Source CFD Toolbox           |
|  \\    /   O peration     | Version:  2412                                  |
|   \\  /    A nd           | Website:  www.openfoam.com                      |
|    \\/     M anipulation  |                                                 |
\*---------------------------------------------------------------------------*/
FoamFile
{
    version     2.0;
    format      ascii;
    arch        "LSB;label=32;scalar=64";
    class       volVectorField;
    location    "2e-07";
    object      rhoU;
}
// * * * * * * * * * * * * * * * * * * * * * * * * * * * * * * * * * * * * * //

dimensions      [0 0 0 0 0 0 0];

internalField   nonuniform List<vector> 
84
(
(0.0741049 2.39433e-14 0)
(0.071756 -1.10695e-08 0)
(0.0717654 -1.10695e-08 -6.245e-21)
(0.0741049 -5.59336e-06 0)
(0.0717563 -5.52577e-06 0)
(0.0717657 -5.52577e-06 -6.24502e-21)
(0.0741049 -5.59202e-06 0)
(0.0717562 -5.52533e-06 0)
(0.0717657 -5.52533e-06 9.36752e-21)
(0.0741049 -5.59202e-06 0)
(0.0717562 -5.52533e-06 0)
(0.0717657 -5.52533e-06 -1.56125e-20)
(0.0741049 -5.59202e-06 0)
(0.0717562 -5.52533e-06 0)
(0.0717657 -5.52533e-06 -2.49801e-20)
(0.0741049 -5.59202e-06 0)
(0.0717562 -5.52533e-06 0)
(0.0717657 -5.52533e-06 1.249e-20)
(0.0741049 -5.59202e-06 0)
(0.0717562 -5.52533e-06 0)
(0.0717657 -5.52533e-06 -1.8735e-20)
(0.0741049 -5.59202e-06 0)
(0.0717562 -5.52533e-06 0)
(0.0717657 -5.52533e-06 -2.18576e-20)
(0.0741049 -5.59202e-06 0)
(0.0717562 -5.52533e-06 0)
(0.0717657 -5.52533e-06 9.36752e-21)
(0.0741049 -5.59202e-06 0)
(0.0717562 -5.52533e-06 0)
(0.0717657 -5.52533e-06 -1.8735e-20)
(0.0741049 -5.59202e-06 0)
(0.0717562 -5.52533e-06 0)
(0.0717657 -5.52533e-06 -4.68376e-20)
(0.0741049 -5.59247e-06 0)
(0.0717561 -5.5147e-06 0)
(0.0717656 -5.5147e-06 0)
(0.0731511 5.70245e-06 1.01996e-23)
(0.0731488 5.77301e-06 5.22163e-21)
(0.0731622 5.77353e-06 5.74994e-22)
(0.0732819 -5.66879e-06 1.01996e-23)
(0.0732813 -5.7483e-06 5.22406e-21)
(0.0732947 -5.74856e-06 0)
(0.0732687 -5.66854e-06 -1.52994e-23)
(0.0732678 -5.74804e-06 -1.3078e-21)
(0.0732813 -5.7483e-06 -1.17725e-20)
(0.0732554 -5.66829e-06 2.5499e-23)
(0.0732544 -5.74778e-06 -9.54982e-23)
(0.073256 -5.82953e-06 1.56262e-25)
(0.0731472 -4.22173e-12 9.2831e-21)
(0.0732422 -5.66789e-06 -5.11068e-21)
(0.073241 -5.74737e-06 -8.67904e-23)
(0.0732424 -5.82911e-06 -9.66928e-23)
(0.073256 -5.82938e-06 7.95981e-21)
(0.0732289 -5.3693e-06 -2.03992e-23)
(0.0732276 -5.44509e-06 -7.83159e-21)
(0.0732287 -5.52253e-06 -1.66153e-22)
(0.0732423 -5.5228e-06 5.30642e-21)
(0.0732156 -4.3296e-06 -1.64645e-23)
(0.0732141 -4.39251e-06 7.70354e-26)
(0.0732151 -4.45498e-06 -5.10219e-23)
(0.0732287 -4.45523e-06 -4.84803e-23)
(0.0732024 -3.6453e-06 6.92713e-23)
(0.0732007 -3.69973e-06 -6.4835e-21)
(0.0732015 -3.75236e-06 5.35449e-21)
(0.0732151 -3.7526e-06 3.4581e-23)
(0.0731892 -3.32117e-06 -7.1817e-24)
(0.0731873 -3.3716e-06 -9.08275e-21)
(0.0731879 -3.41957e-06 -9.24327e-21)
(0.0731885 -3.46893e-06 9.4322e-21)
(0.0731472 1.12302e-09 6.453e-20)
(0.073176 -3.35436e-06 5.41098e-23)
(0.073174 -3.40514e-06 -1.04375e-20)
(0.0731744 -3.45354e-06 5.31447e-21)
(0.0731748 -3.50333e-06 1.60882e-20)
(0.0731886 -3.50391e-06 8.09827e-21)
(0.0731628 -3.75594e-06 9.59272e-23)
(0.0731606 -3.8117e-06 -3.19731e-26)
(0.0731608 -3.86589e-06 1.20871e-23)
(0.073161 -3.92163e-06 4.23231e-24)
(0.0731748 -3.92194e-06 -8.07314e-21)
(0.0731496 -4.51799e-06 7.01537e-24)
(0.0731473 -4.58318e-06 1.04458e-20)
(0.0731473 -4.64833e-06 -9.88046e-24)
(0.0731609 -4.6487e-06 -1.59099e-20)
)
;

boundaryField
{
    inlet
    {
        type            calculated;
        value           uniform (0 0 0);
    }
    outlet2
    {
        type            calculated;
        value           uniform (0 0 0);
    }
    outlet1
    {
        type            calculated;
        value           nonuniform List<vector> 0();
    }
    wall
    {
        type            calculated;
        value           uniform (0 0 0);
    }
    symmetryBottom
    {
        type            symmetry;
    }
    symmetryZ0
    {
        type            symmetry;
    }
    symmetryZ05
    {
        type            symmetry;
    }
    procBoundary1to0
    {
        type            processor;
        value           uniform (0 0 0);
    }
}


// ************************************************************************* //
