/*--------------------------------*- C++ -*----------------------------------*\
| =========                 |                                                 |
| \\      /  F ield         | OpenFOAM: The Open Source CFD Toolbox           |
|  \\    /   O peration     | Version:  2412                                  |
|   \\  /    A nd           | Website:  www.openfoam.com                      |
|    \\/     M anipulation  |                                                 |
\*---------------------------------------------------------------------------*/
FoamFile
{
    version     2.0;
    format      ascii;
    arch        "LSB;label=32;scalar=64";
    class       volVectorField;
    location    "2e-07";
    object      U;
}
// * * * * * * * * * * * * * * * * * * * * * * * * * * * * * * * * * * * * * //

dimensions      [0 0 0 0 0 0 0];

internalField   nonuniform List<vector> 
84
(
(2636.39 8.51816e-10 0)
(2635.88 -0.000406626 0)
(2635.88 -0.000406574 -2.29373e-16)
(2636.39 -0.198992 0)
(2635.88 -0.202982 0)
(2635.88 -0.202956 -2.29373e-16)
(2636.39 -0.198944 0)
(2635.88 -0.202966 0)
(2635.88 -0.20294 3.4406e-16)
(2636.39 -0.198944 0)
(2635.88 -0.202966 0)
(2635.88 -0.20294 -5.73433e-16)
(2636.39 -0.198944 0)
(2635.88 -0.202966 0)
(2635.88 -0.20294 -9.17492e-16)
(2636.39 -0.198944 0)
(2635.88 -0.202966 0)
(2635.88 -0.20294 4.58746e-16)
(2636.39 -0.198944 0)
(2635.88 -0.202966 0)
(2635.88 -0.20294 -6.88119e-16)
(2636.39 -0.198944 0)
(2635.88 -0.202966 0)
(2635.88 -0.20294 -8.02806e-16)
(2636.39 -0.198944 0)
(2635.88 -0.202966 0)
(2635.88 -0.20294 3.4406e-16)
(2636.39 -0.198944 0)
(2635.88 -0.202966 0)
(2635.88 -0.20294 -6.88119e-16)
(2636.39 -0.198944 0)
(2635.88 -0.202966 0)
(2635.88 -0.20294 -1.7203e-15)
(2636.39 -0.19896 0)
(2635.88 -0.202576 0)
(2635.88 -0.20255 0)
(2636.15 0.205499 3.67563e-19)
(2636.15 0.208048 1.88178e-16)
(2636.15 0.208029 2.07179e-17)
(2636.21 -0.203927 3.66916e-19)
(2636.21 -0.206789 1.8793e-16)
(2636.21 -0.206761 0)
(2636.21 -0.203954 -5.50473e-19)
(2636.21 -0.206817 -4.70551e-17)
(2636.21 -0.206789 -4.23504e-16)
(2636.21 -0.203982 9.1762e-19)
(2636.21 -0.206845 -3.43669e-18)
(2636.21 -0.209783 5.62328e-21)
(2636.18 -1.52149e-07 3.34558e-16)
(2636.2 -0.204004 -1.83949e-16)
(2636.2 -0.206868 -3.12389e-18)
(2636.2 -0.209807 -3.48025e-18)
(2636.21 -0.209778 2.86444e-16)
(2636.2 -0.193292 -7.3436e-19)
(2636.2 -0.196023 -2.81938e-16)
(2636.2 -0.198808 -5.98144e-18)
(2636.2 -0.198781 1.90993e-16)
(2636.19 -0.155891 -5.92818e-19)
(2636.19 -0.158159 2.77379e-21)
(2636.19 -0.160407 -1.8371e-18)
(2636.2 -0.160386 -1.74527e-18)
(2636.19 -0.131276 2.49462e-18)
(2636.19 -0.133239 -2.33491e-16)
(2636.19 -0.135133 1.9283e-16)
(2636.19 -0.135117 1.24513e-18)
(2636.19 -0.119625 -2.58676e-19)
(2636.19 -0.121444 -3.27158e-16)
(2636.19 -0.123171 -3.32937e-16)
(2636.19 -0.124948 3.3974e-16)
(2636.18 4.04729e-05 2.32562e-15)
(2636.19 -0.120842 1.94932e-18)
(2636.19 -0.122675 -3.76023e-16)
(2636.19 -0.124417 1.91459e-16)
(2636.19 -0.126211 5.79591e-16)
(2636.19 -0.126208 2.91693e-16)
(2636.18 -0.135333 3.45643e-18)
(2636.18 -0.137346 -1.15208e-21)
(2636.18 -0.139298 4.3553e-19)
(2636.18 -0.141307 1.52501e-19)
(2636.19 -0.141291 -2.90842e-16)
(2636.18 -0.162821 2.52822e-19)
(2636.18 -0.165175 3.76459e-16)
(2636.18 -0.167523 -3.56086e-19)
(2636.19 -0.167505 -5.73275e-16)
)
;

boundaryField
{
    inlet
    {
        type            calculated;
        value           uniform (0 0 0);
    }
    outlet2
    {
        type            calculated;
        value           uniform (0 0 0);
    }
    outlet1
    {
        type            calculated;
        value           nonuniform List<vector> 0();
    }
    wall
    {
        type            calculated;
        value           uniform (0 0 0);
    }
    symmetryBottom
    {
        type            symmetry;
    }
    symmetryZ0
    {
        type            symmetry;
    }
    symmetryZ05
    {
        type            symmetry;
    }
    procBoundary1to0
    {
        type            processor;
        value           uniform (0 0 0);
    }
}


// ************************************************************************* //
