/*--------------------------------*- C++ -*----------------------------------*\
| =========                 |                                                 |
| \\      /  F ield         | OpenFOAM: The Open Source CFD Toolbox           |
|  \\    /   O peration     | Version:  2412                                  |
|   \\  /    A nd           | Website:  www.openfoam.com                      |
|    \\/     M anipulation  |                                                 |
\*---------------------------------------------------------------------------*/
FoamFile
{
    version     2.0;
    format      ascii;
    arch        "LSB;label=32;scalar=64";
    class       volScalarField;
    location    "5.6e-06";
    object      rho_dof0;
}
// * * * * * * * * * * * * * * * * * * * * * * * * * * * * * * * * * * * * * //

dimensions      [0 0 0 0 0 0 0];

internalField   nonuniform List<scalar> 
84
(
2.81104e-05
7.95201e-06
1.20552e-05
2.81181e-05
7.95893e-06
1.20616e-05
2.81161e-05
7.95804e-06
1.20605e-05
2.81161e-05
7.95804e-06
1.20605e-05
2.81161e-05
7.95804e-06
1.20605e-05
2.81161e-05
7.95804e-06
1.20605e-05
2.81161e-05
7.95804e-06
1.20605e-05
2.81161e-05
7.95804e-06
1.20605e-05
2.81161e-05
7.95804e-06
1.20605e-05
2.81161e-05
7.95804e-06
1.20605e-05
2.81161e-05
7.95803e-06
1.20605e-05
2.81162e-05
7.9565e-06
1.20596e-05
2.04478e-05
1.95688e-05
1.97342e-05
2.15278e-05
2.05482e-05
2.07251e-05
2.14133e-05
2.04444e-05
2.0619e-05
2.12994e-05
2.0341e-05
2.0415e-05
1.95157e-05
2.11858e-05
2.0238e-05
2.03097e-05
2.04206e-05
2.10723e-05
2.0135e-05
2.02044e-05
2.0315e-05
2.0959e-05
2.00324e-05
2.00994e-05
2.02096e-05
2.08477e-05
1.99314e-05
1.99963e-05
2.01054e-05
2.07311e-05
1.98258e-05
1.98883e-05
1.98902e-05
1.95632e-05
2.06298e-05
1.97336e-05
1.97942e-05
1.97948e-05
1.99057e-05
2.05159e-05
1.96304e-05
1.96886e-05
1.9688e-05
1.98276e-05
2.04079e-05
1.95322e-05
1.95883e-05
1.96962e-05
)
;

boundaryField
{
    inlet
    {
        type            calculated;
        value           uniform 2.81085e-05;
    }
    outlet2
    {
        type            calculated;
        value           uniform 2.81085e-05;
    }
    outlet1
    {
        type            calculated;
        value           nonuniform List<scalar> 0();
    }
    wall
    {
        type            calculated;
        value           uniform 2.81085e-05;
    }
    symmetryBottom
    {
        type            symmetry;
    }
    symmetryZ0
    {
        type            symmetry;
    }
    symmetryZ05
    {
        type            symmetry;
    }
    procBoundary1to0
    {
        type            processor;
        value           uniform 2.81085e-05;
    }
}


// ************************************************************************* //
