/*--------------------------------*- C++ -*----------------------------------*\
| =========                 |                                                 |
| \\      /  F ield         | OpenFOAM: The Open Source CFD Toolbox           |
|  \\    /   O peration     | Version:  2412                                  |
|   \\  /    A nd           | Website:  www.openfoam.com                      |
|    \\/     M anipulation  |                                                 |
\*---------------------------------------------------------------------------*/
FoamFile
{
    version     2.0;
    format      ascii;
    arch        "LSB;label=32;scalar=64";
    class       volScalarField;
    location    "4.7e-06";
    object      E_dof0;
}
// * * * * * * * * * * * * * * * * * * * * * * * * * * * * * * * * * * * * * //

dimensions      [0 0 0 0 0 0 0];

internalField   nonuniform List<scalar> 
84
(
97.9697
71.2909
73.3381
73.2378
73.2444
73.2471
73.25
73.635
102.288
74.5078
76.6897
76.6363
76.6956
76.7526
76.8115
77.2104
101.542
74.4475
76.3128
76.2823
76.3344
76.3855
76.4384
76.8359
101.203
73.8865
76.0329
75.9709
76.0203
76.067
76.4631
100.999
73.535
75.6801
75.6125
75.6561
75.6969
76.0915
100.548
73.1981
75.3288
75.2561
75.2939
75.3287
75.722
100.107
72.8697
74.9853
74.9077
74.9398
74.9689
75.3608
99.5176
72.7005
74.6347
74.5676
74.5936
74.6171
75.0076
99.1607
72.2732
74.3565
74.2702
74.2924
74.6815
98.739
71.8497
73.9229
73.8303
73.8457
74.2331
98.238
71.5374
73.589
73.4919
73.5017
73.8877
97.3925
71.2932
73.2446
73.1498
73.1539
73.1544
73.5392
)
;

boundaryField
{
    inlet
    {
        type            calculated;
        value           nonuniform List<scalar> 0();
    }
    outlet2
    {
        type            calculated;
        value           uniform 99.4306;
    }
    outlet1
    {
        type            calculated;
        value           uniform 99.4306;
    }
    wall
    {
        type            calculated;
        value           uniform 99.4306;
    }
    symmetryBottom
    {
        type            symmetry;
    }
    symmetryZ0
    {
        type            symmetry;
    }
    symmetryZ05
    {
        type            symmetry;
    }
    procBoundary0to1
    {
        type            processor;
        value           uniform 99.4306;
    }
}


// ************************************************************************* //
