/*--------------------------------*- C++ -*----------------------------------*\
| =========                 |                                                 |
| \\      /  F ield         | OpenFOAM: The Open Source CFD Toolbox           |
|  \\    /   O peration     | Version:  2412                                  |
|   \\  /    A nd           | Website:  www.openfoam.com                      |
|    \\/     M anipulation  |                                                 |
\*---------------------------------------------------------------------------*/
FoamFile
{
    version     2.0;
    format      ascii;
    arch        "LSB;label=32;scalar=64";
    class       volVectorField;
    location    "4.7e-06";
    object      rhoU_dof0;
}
// * * * * * * * * * * * * * * * * * * * * * * * * * * * * * * * * * * * * * //

dimensions      [0 0 0 0 0 0 0];

internalField   nonuniform List<vector> 
84
(
(0.0730351 0.000134708 1.33964e-19)
(0.0532481 0.000100244 -1.35388e-19)
(0.0547578 0.000104464 -2.61192e-19)
(0.0546844 0.000105857 1.48521e-19)
(0.0546893 0.000107438 -1.46609e-20)
(0.0546914 0.000109061 1.78662e-20)
(0.0546936 0.000110734 2.47346e-19)
(0.0549793 0.000111172 3.9198e-20)
(0.0762297 -0.000142941 1.37435e-19)
(0.0556314 -0.000107709 -1.3499e-19)
(0.0572404 -0.000112031 -3.2372e-19)
(0.0572018 -0.000113673 3.10603e-20)
(0.0572457 -0.000115496 -6.11193e-19)
(0.057288 -0.000117373 1.21508e-19)
(0.0573317 -0.000119313 4.86065e-19)
(0.0576276 -0.000119757 9.78325e-20)
(0.075678 -0.00013123 -5.76615e-19)
(0.0555852 -0.000116978 1.03583e-19)
(0.056961 -0.000110632 1.86338e-19)
(0.056939 -0.000113222 -1.6501e-20)
(0.0569776 -0.000114979 -6.99307e-21)
(0.0570156 -0.000116842 2.43386e-19)
(0.0570548 -0.000118765 -2.15451e-19)
(0.0573497 -0.000119207 -2.36904e-19)
(0.0754266 -0.000135298 -5.60061e-19)
(0.0551702 -0.000108744 2.62922e-19)
(0.056753 -0.000112795 -2.29273e-20)
(0.0567079 -0.000114464 -5.44378e-19)
(0.0567445 -0.000116313 5.28269e-19)
(0.0567792 -0.000118219 9.70446e-20)
(0.057073 -0.00011866 -2.14554e-19)
(0.0752747 -0.00014347 -3.43341e-19)
(0.0549093 -0.000107862 -9.54912e-20)
(0.0564912 -0.000112342 8.29128e-21)
(0.0564419 -0.00011398 2.53925e-21)
(0.0564742 -0.000115815 -1.97771e-19)
(0.0565045 -0.000117704 1.48976e-19)
(0.0567973 -0.000118144 3.40282e-19)
(0.0749381 -0.000137428 -2.07915e-19)
(0.0546574 -0.000103167 2.88746e-19)
(0.0562286 -0.000107497 -2.40326e-20)
(0.0561756 -0.000109083 3.48824e-19)
(0.0562036 -0.000110859 -3.13375e-19)
(0.0562294 -0.000112689 2.69361e-19)
(0.0565211 -0.000113112 -5.86378e-19)
(0.0745991 -0.000110215 -6.33925e-23)
(0.0544054 -8.27929e-05 2.77596e-19)
(0.0559651 -8.61991e-05 -2.34643e-20)
(0.0559082 -8.74688e-05 1.74632e-22)
(0.0559319 -8.88846e-05 2.88872e-19)
(0.0559533 -9.03432e-05 3.9327e-20)
(0.0562439 -9.06838e-05 2.87735e-19)
(0.0741515 -8.39465e-05 3.96883e-21)
(0.0542705 -7.77202e-05 2.82509e-21)
(0.0556959 -7.22388e-05 -1.28472e-21)
(0.0556467 -7.40797e-05 -3.06946e-21)
(0.0556655 -7.5245e-05 -6.44279e-22)
(0.0556827 -7.64883e-05 1.31349e-21)
(0.0559723 -7.67768e-05 -2.47047e-19)
(0.0738398 -7.94091e-05 7.27422e-19)
(0.0539147 -6.34953e-05 -5.50267e-20)
(0.0554486 -6.5923e-05 -6.02615e-19)
(0.0553845 -6.68934e-05 -2.09374e-19)
(0.0553998 -6.79737e-05 3.24543e-19)
(0.0556883 -6.82333e-05 -2.53744e-20)
(0.0736344 -8.28643e-05 -2.60491e-19)
(0.053683 -6.19621e-05 1.97022e-20)
(0.0552132 -6.45622e-05 -2.78344e-19)
(0.0551458 -6.54695e-05 3.03506e-19)
(0.0551576 -6.64916e-05 5.1123e-19)
(0.0554451 -6.67492e-05 -4.56667e-20)
(0.0732375 -8.83226e-05 -3.64905e-19)
(0.0534327 -7.04162e-05 2.67116e-20)
(0.054946 -7.28292e-05 -7.71168e-22)
(0.054875 -7.38918e-05 5.32212e-19)
(0.0548823 -7.50553e-05 5.52252e-19)
(0.0551687 -7.5345e-05 2.4737e-20)
(0.072602 -1.04475e-05 -2.2027e-20)
(0.0532477 -9.23869e-05 1.13354e-21)
(0.0546863 -8.50423e-05 -4.14415e-23)
(0.0546168 -8.69004e-05 3.26321e-19)
(0.0546199 -8.82106e-05 -2.76317e-20)
(0.0546203 -8.95889e-05 1.4316e-21)
(0.0549059 -8.99382e-05 -2.80338e-19)
)
;

boundaryField
{
    inlet
    {
        type            calculated;
        value           nonuniform List<vector> 0();
    }
    outlet2
    {
        type            calculated;
        value           uniform (0.0741049 0 0);
    }
    outlet1
    {
        type            calculated;
        value           uniform (0.0741049 0 0);
    }
    wall
    {
        type            calculated;
        value           uniform (0.0741049 0 0);
    }
    symmetryBottom
    {
        type            symmetry;
    }
    symmetryZ0
    {
        type            symmetry;
    }
    symmetryZ05
    {
        type            symmetry;
    }
    procBoundary0to1
    {
        type            processor;
        value           uniform (0.0741049 0 0);
    }
}


// ************************************************************************* //
