/*--------------------------------*- C++ -*----------------------------------*\
| =========                 |                                                 |
| \\      /  F ield         | OpenFOAM: The Open Source CFD Toolbox           |
|  \\    /   O peration     | Version:  2412                                  |
|   \\  /    A nd           | Website:  www.openfoam.com                      |
|    \\/     M anipulation  |                                                 |
\*---------------------------------------------------------------------------*/
FoamFile
{
    version     2.0;
    format      ascii;
    arch        "LSB;label=32;scalar=64";
    class       volScalarField;
    location    "8.2e-06";
    object      E_dof0;
}
// * * * * * * * * * * * * * * * * * * * * * * * * * * * * * * * * * * * * * //

dimensions      [0 0 0 0 0 0 0];

internalField   nonuniform List<scalar> 
84
(
94.9474
53.2653
58.8906
58.3945
58.434
58.4386
58.4453
59.0136
102.272
57.4929
63.6032
63.1433
63.2593
63.3404
63.4262
64.031
100.687
57.8563
62.9608
62.6471
62.7401
62.8135
62.8903
63.4913
100.161
56.6911
62.6571
62.1917
62.2927
62.3587
62.956
100.044
56.1767
62.1547
61.6807
61.7732
61.8305
62.424
99.2624
55.725
61.6497
61.1716
61.2553
61.3039
61.8937
98.4941
55.2891
61.1555
60.6744
60.7495
60.7896
61.3757
97.3345
55.3144
60.6038
60.2017
60.261
60.2936
60.8761
96.7224
54.5129
60.2505
59.7642
59.8243
60.4017
96.1773
53.956
59.6686
59.1762
59.2272
59.7999
95.2395
53.5604
59.182
58.6893
58.7315
59.3007
93.836
53.3502
58.6824
58.2207
58.2522
58.2523
58.8199
)
;

boundaryField
{
    inlet
    {
        type            calculated;
        value           nonuniform List<scalar> 0();
    }
    outlet2
    {
        type            calculated;
        value           uniform 99.4306;
    }
    outlet1
    {
        type            calculated;
        value           uniform 99.4306;
    }
    wall
    {
        type            calculated;
        value           uniform 99.4306;
    }
    symmetryBottom
    {
        type            symmetry;
    }
    symmetryZ0
    {
        type            symmetry;
    }
    symmetryZ05
    {
        type            symmetry;
    }
    procBoundary0to1
    {
        type            processor;
        value           uniform 99.4306;
    }
}


// ************************************************************************* //
