/*--------------------------------*- C++ -*----------------------------------*\
| =========                 |                                                 |
| \\      /  F ield         | OpenFOAM: The Open Source CFD Toolbox           |
|  \\    /   O peration     | Version:  2412                                  |
|   \\  /    A nd           | Website:  www.openfoam.com                      |
|    \\/     M anipulation  |                                                 |
\*---------------------------------------------------------------------------*/
FoamFile
{
    version     2.0;
    format      ascii;
    arch        "LSB;label=32;scalar=64";
    class       volScalarField;
    location    "1.7e-06";
    object      rho;
}
// * * * * * * * * * * * * * * * * * * * * * * * * * * * * * * * * * * * * * //

dimensions      [0 0 0 0 0 0 0];

internalField   nonuniform List<scalar> 
84
(
2.81087e-05
2.1013e-05
2.14571e-05
2.81095e-05
2.10151e-05
2.1459e-05
2.81093e-05
2.10149e-05
2.14588e-05
2.81093e-05
2.10149e-05
2.14588e-05
2.81093e-05
2.10149e-05
2.14588e-05
2.81093e-05
2.10149e-05
2.14588e-05
2.81093e-05
2.10149e-05
2.14588e-05
2.81093e-05
2.10149e-05
2.14588e-05
2.81093e-05
2.10149e-05
2.14588e-05
2.81093e-05
2.10149e-05
2.14588e-05
2.81093e-05
2.10149e-05
2.14588e-05
2.81093e-05
2.10143e-05
2.14583e-05
2.52978e-05
2.51928e-05
2.52345e-05
2.5686e-05
2.55755e-05
2.56179e-05
2.56459e-05
2.5536e-05
2.55782e-05
2.56059e-05
2.54965e-05
2.5503e-05
2.51775e-05
2.5566e-05
2.54571e-05
2.5463e-05
2.55038e-05
2.5526e-05
2.54177e-05
2.5423e-05
2.54638e-05
2.54862e-05
2.53784e-05
2.53831e-05
2.54238e-05
2.54465e-05
2.53393e-05
2.53434e-05
2.5384e-05
2.54063e-05
2.52997e-05
2.53032e-05
2.53049e-05
2.51824e-05
2.53676e-05
2.52615e-05
2.52644e-05
2.52656e-05
2.53066e-05
2.53277e-05
2.52221e-05
2.52245e-05
2.52251e-05
2.52687e-05
2.52882e-05
2.51831e-05
2.51849e-05
2.52254e-05
)
;

boundaryField
{
    inlet
    {
        type            calculated;
        value           uniform 0;
    }
    outlet2
    {
        type            calculated;
        value           uniform 0;
    }
    outlet1
    {
        type            calculated;
        value           nonuniform List<scalar> 0();
    }
    wall
    {
        type            calculated;
        value           uniform 0;
    }
    symmetryBottom
    {
        type            symmetry;
    }
    symmetryZ0
    {
        type            symmetry;
    }
    symmetryZ05
    {
        type            symmetry;
    }
    procBoundary1to0
    {
        type            processor;
        value           uniform 0;
    }
}


// ************************************************************************* //
