/*--------------------------------*- C++ -*----------------------------------*\
| =========                 |                                                 |
| \\      /  F ield         | OpenFOAM: The Open Source CFD Toolbox           |
|  \\    /   O peration     | Version:  2412                                  |
|   \\  /    A nd           | Website:  www.openfoam.com                      |
|    \\/     M anipulation  |                                                 |
\*---------------------------------------------------------------------------*/
FoamFile
{
    version     2.0;
    format      ascii;
    arch        "LSB;label=32;scalar=64";
    class       volVectorField;
    location    "1.7e-06";
    object      rhoU_dof0;
}
// * * * * * * * * * * * * * * * * * * * * * * * * * * * * * * * * * * * * * //

dimensions      [0 0 0 0 0 0 0];

internalField   nonuniform List<vector> 
84
(
(0.0741054 -4.95045e-08 0)
(0.0552932 -1.99078e-07 0)
(0.0564775 -1.80687e-07 -5.30833e-20)
(0.0741076 -4.46667e-05 0)
(0.0552987 -3.63217e-05 0)
(0.0564826 -3.68746e-05 -5.30831e-20)
(0.074107 -4.4611e-05 0)
(0.0552982 -3.6276e-05 0)
(0.0564821 -3.68282e-05 8.43086e-20)
(0.074107 -4.4611e-05 0)
(0.0552982 -3.6276e-05 0)
(0.0564821 -3.68282e-05 -1.09296e-19)
(0.074107 -4.4611e-05 0)
(0.0552982 -3.6276e-05 0)
(0.0564821 -3.68282e-05 -1.82672e-19)
(0.074107 -4.4611e-05 0)
(0.0552982 -3.6276e-05 0)
(0.0564821 -3.68282e-05 1.06167e-19)
(0.074107 -4.4611e-05 0)
(0.0552982 -3.6276e-05 0)
(0.0564821 -3.68282e-05 -1.28031e-19)
(0.074107 -4.4611e-05 0)
(0.0552982 -3.6276e-05 0)
(0.0564821 -3.68282e-05 -1.51447e-19)
(0.074107 -4.4611e-05 0)
(0.0552982 -3.6276e-05 0)
(0.0564821 -3.68282e-05 5.46433e-20)
(0.074107 -4.4611e-05 0)
(0.0552982 -3.6276e-05 0)
(0.0564821 -3.68282e-05 -1.28035e-19)
(0.074107 -4.4611e-05 0)
(0.0552982 -3.62756e-05 0)
(0.0564821 -3.68279e-05 -3.2007e-19)
(0.0741071 -4.46173e-05 0)
(0.0552967 -3.61234e-05 0)
(0.0564808 -3.66947e-05 0)
(0.066646 4.47017e-05 1.45283e-21)
(0.0663659 4.40743e-05 4.71417e-20)
(0.0664765 4.4147e-05 4.65035e-21)
(0.0676833 -4.45465e-05 1.36283e-21)
(0.0673887 -4.50014e-05 4.98057e-20)
(0.067501 -4.50523e-05 -3.26614e-22)
(0.0675771 -4.44859e-05 -2.27573e-21)
(0.0672839 -4.49398e-05 -2.30366e-20)
(0.0673958 -4.49793e-05 -9.97607e-20)
(0.067471 -4.44246e-05 2.9759e-21)
(0.0671793 -4.48783e-05 -8.1349e-22)
(0.0671964 -4.55263e-05 1.87395e-23)
(0.0663336 8.09979e-07 7.0239e-20)
(0.0673651 -4.43654e-05 -2.25649e-20)
(0.0670748 -4.48189e-05 -1.44263e-22)
(0.0670903 -4.54651e-05 -7.6621e-22)
(0.0671986 -4.55145e-05 6.9281e-20)
(0.067259 -4.20935e-05 -2.90368e-21)
(0.0669701 -4.258e-05 -4.97334e-20)
(0.0669842 -4.31951e-05 -1.11793e-22)
(0.0670922 -4.32425e-05 4.78695e-20)
(0.0671526 -3.36864e-05 3.25622e-21)
(0.0668652 -3.42831e-05 -1.29329e-22)
(0.0668776 -3.4774e-05 -3.22637e-22)
(0.0669856 -3.48127e-05 -3.96476e-22)
(0.0670471 -2.82398e-05 4.52776e-21)
(0.0667611 -2.89082e-05 -4.69984e-20)
(0.0667721 -2.932e-05 5.20669e-20)
(0.0668798 -2.93445e-05 3.89568e-22)
(0.0669406 -2.54557e-05 -1.4728e-21)
(0.066656 -2.61574e-05 -7.35985e-20)
(0.0666653 -2.65259e-05 -7.29682e-20)
(0.0666699 -2.69107e-05 7.82923e-20)
(0.0663463 8.71423e-07 5.06159e-19)
(0.0668385 -2.54659e-05 3.79089e-21)
(0.0665557 -2.61639e-05 -7.52262e-20)
(0.0665636 -2.65284e-05 4.99119e-20)
(0.0665666 -2.69095e-05 1.21867e-19)
(0.0666752 -2.69814e-05 7.96266e-20)
(0.0667329 -2.86986e-05 9.26555e-21)
(0.0664515 -2.93513e-05 -1.34853e-22)
(0.0664578 -2.97636e-05 9.69062e-23)
(0.0664595 -3.02003e-05 -9.94129e-24)
(0.0665751 -3.0781e-05 -7.26582e-20)
(0.0666285 -3.46334e-05 5.48725e-23)
(0.0663485 -3.51972e-05 7.13329e-20)
(0.0663533 -3.56944e-05 -1.87104e-21)
(0.0664606 -3.57308e-05 -1.23346e-19)
)
;

boundaryField
{
    inlet
    {
        type            calculated;
        value           uniform (0.0741049 0 0);
    }
    outlet2
    {
        type            calculated;
        value           uniform (0.0741049 0 0);
    }
    outlet1
    {
        type            calculated;
        value           nonuniform List<vector> 0();
    }
    wall
    {
        type            calculated;
        value           uniform (0.0741049 0 0);
    }
    symmetryBottom
    {
        type            symmetry;
    }
    symmetryZ0
    {
        type            symmetry;
    }
    symmetryZ05
    {
        type            symmetry;
    }
    procBoundary1to0
    {
        type            processor;
        value           uniform (0.0741049 0 0);
    }
}


// ************************************************************************* //
