/*--------------------------------*- C++ -*----------------------------------*\
| =========                 |                                                 |
| \\      /  F ield         | OpenFOAM: The Open Source CFD Toolbox           |
|  \\    /   O peration     | Version:  2412                                  |
|   \\  /    A nd           | Website:  www.openfoam.com                      |
|    \\/     M anipulation  |                                                 |
\*---------------------------------------------------------------------------*/
FoamFile
{
    version     2.0;
    format      ascii;
    arch        "LSB;label=32;scalar=64";
    class       volScalarField;
    location    "2.4e-06";
    object      rho;
}
// * * * * * * * * * * * * * * * * * * * * * * * * * * * * * * * * * * * * * //

dimensions      [0 0 0 0 0 0 0];

internalField   nonuniform List<scalar> 
84
(
2.8035e-05
2.39357e-05
2.40914e-05
2.40879e-05
2.40884e-05
2.40887e-05
2.40891e-05
2.41505e-05
2.86507e-05
2.44727e-05
2.46396e-05
2.46444e-05
2.46534e-05
2.46626e-05
2.46721e-05
2.47346e-05
2.85644e-05
2.44362e-05
2.45818e-05
2.45866e-05
2.45947e-05
2.46029e-05
2.46115e-05
2.46739e-05
2.85127e-05
2.43683e-05
2.45327e-05
2.4536e-05
2.45434e-05
2.4551e-05
2.46133e-05
2.84676e-05
2.43114e-05
2.44752e-05
2.44775e-05
2.4484e-05
2.44906e-05
2.45529e-05
2.84032e-05
2.4255e-05
2.44176e-05
2.44191e-05
2.44247e-05
2.44303e-05
2.44924e-05
2.83387e-05
2.41988e-05
2.43602e-05
2.43608e-05
2.43654e-05
2.43701e-05
2.44321e-05
2.82626e-05
2.41538e-05
2.43027e-05
2.43029e-05
2.43066e-05
2.43104e-05
2.43723e-05
2.82026e-05
2.40889e-05
2.42477e-05
2.42466e-05
2.42495e-05
2.43113e-05
2.81509e-05
2.40341e-05
2.41921e-05
2.41902e-05
2.41922e-05
2.42538e-05
2.80797e-05
2.39771e-05
2.41336e-05
2.41308e-05
2.41318e-05
2.41934e-05
2.79534e-05
2.39273e-05
2.4076e-05
2.40725e-05
2.40727e-05
2.40727e-05
2.41342e-05
)
;

boundaryField
{
    inlet
    {
        type            calculated;
        value           nonuniform List<scalar> 0();
    }
    outlet2
    {
        type            calculated;
        value           uniform 0;
    }
    outlet1
    {
        type            calculated;
        value           uniform 0;
    }
    wall
    {
        type            calculated;
        value           uniform 0;
    }
    symmetryBottom
    {
        type            symmetry;
    }
    symmetryZ0
    {
        type            symmetry;
    }
    symmetryZ05
    {
        type            symmetry;
    }
    procBoundary0to1
    {
        type            processor;
        value           uniform 0;
    }
}


// ************************************************************************* //
