/*--------------------------------*- C++ -*----------------------------------*\
| =========                 |                                                 |
| \\      /  F ield         | OpenFOAM: The Open Source CFD Toolbox           |
|  \\    /   O peration     | Version:  2412                                  |
|   \\  /    A nd           | Website:  www.openfoam.com                      |
|    \\/     M anipulation  |                                                 |
\*---------------------------------------------------------------------------*/
FoamFile
{
    version     2.0;
    format      ascii;
    arch        "LSB;label=32;scalar=64";
    class       volScalarField;
    location    "2.4e-06";
    object      T;
}
// * * * * * * * * * * * * * * * * * * * * * * * * * * * * * * * * * * * * * //

dimensions      [0 0 0 0 0 0 0];

internalField   nonuniform List<scalar> 
84
(
201.457
201.487
201.514
201.537
201.56
201.585
201.61
201.609
199.996
199.994
200
199.999
199.999
199.999
199.999
199.999
199.992
199.994
200
199.999
199.999
199.999
199.999
199.999
199.996
199.994
200
199.999
199.999
199.999
199.999
199.997
199.994
200.001
200
200
200
200
200.261
200.27
200.279
200.282
200.286
200.29
200.29
201.312
201.352
201.377
201.397
201.419
201.441
201.44
202.273
202.38
202.408
202.445
202.483
202.523
202.521
206.039
206.47
206.563
206.669
206.779
206.773
197.476
197.408
197.376
197.334
197.291
197.293
199.379
199.38
199.376
199.366
199.356
199.356
199.97
199.735
199.743
199.739
199.734
199.73
199.73
)
;

boundaryField
{
    inlet
    {
        type            calculated;
        value           nonuniform List<scalar> 0();
    }
    outlet2
    {
        type            calculated;
        value           uniform 0;
    }
    outlet1
    {
        type            calculated;
        value           uniform 0;
    }
    wall
    {
        type            calculated;
        value           uniform 0;
    }
    symmetryBottom
    {
        type            symmetry;
    }
    symmetryZ0
    {
        type            symmetry;
    }
    symmetryZ05
    {
        type            symmetry;
    }
    procBoundary0to1
    {
        type            processor;
        value           uniform 0;
    }
}


// ************************************************************************* //
