/*--------------------------------*- C++ -*----------------------------------*\
| =========                 |                                                 |
| \\      /  F ield         | OpenFOAM: The Open Source CFD Toolbox           |
|  \\    /   O peration     | Version:  2412                                  |
|   \\  /    A nd           | Website:  www.openfoam.com                      |
|    \\/     M anipulation  |                                                 |
\*---------------------------------------------------------------------------*/
FoamFile
{
    version     2.0;
    format      ascii;
    arch        "LSB;label=32;scalar=64";
    class       volVectorField;
    location    "1.4e-06";
    object      rhoU;
}
// * * * * * * * * * * * * * * * * * * * * * * * * * * * * * * * * * * * * * //

dimensions      [0 0 0 0 0 0 0];

internalField   nonuniform List<vector> 
84
(
(0.0741052 -3.26916e-08 0)
(0.058429 -1.59473e-07 0)
(0.0592342 -1.47112e-07 -4.37155e-20)
(0.0741067 -3.72414e-05 0)
(0.0584333 -3.15648e-05 0)
(0.0592383 -3.18664e-05 -4.37154e-20)
(0.0741063 -3.72032e-05 0)
(0.058433 -3.15325e-05 0)
(0.0592379 -3.18337e-05 7.18183e-20)
(0.0741063 -3.72032e-05 0)
(0.058433 -3.15325e-05 0)
(0.0592379 -3.18337e-05 -9.52417e-20)
(0.0741063 -3.72032e-05 0)
(0.058433 -3.15325e-05 0)
(0.0592379 -3.18337e-05 -1.56129e-19)
(0.0741063 -3.72032e-05 0)
(0.058433 -3.15325e-05 0)
(0.0592379 -3.18337e-05 9.21149e-20)
(0.0741063 -3.72032e-05 0)
(0.058433 -3.15325e-05 0)
(0.0592379 -3.18337e-05 -1.12416e-19)
(0.0741063 -3.72032e-05 0)
(0.058433 -3.15325e-05 0)
(0.0592379 -3.18337e-05 -1.29587e-19)
(0.0741063 -3.72032e-05 0)
(0.058433 -3.15325e-05 0)
(0.0592379 -3.18337e-05 4.68373e-20)
(0.0741063 -3.72032e-05 0)
(0.058433 -3.15325e-05 0)
(0.0592379 -3.18337e-05 -1.12418e-19)
(0.0741063 -3.72032e-05 0)
(0.058433 -3.15323e-05 0)
(0.0592379 -3.18336e-05 -2.7635e-19)
(0.0741064 -3.72084e-05 0)
(0.0584317 -3.14058e-05 0)
(0.0592368 -3.17197e-05 0)
(0.0678619 3.74003e-05 1.00566e-21)
(0.0676702 3.70809e-05 3.97051e-20)
(0.0677613 3.71276e-05 3.86786e-21)
(0.068728 -3.72511e-05 9.15215e-22)
(0.0685289 -3.7682e-05 4.23618e-20)
(0.068621 -3.77154e-05 -2.13858e-22)
(0.0686395 -3.72105e-05 -1.55458e-21)
(0.0684411 -3.76406e-05 -1.93005e-20)
(0.068533 -3.76666e-05 -8.26398e-20)
(0.0685511 -3.71696e-05 2.03466e-21)
(0.0683534 -3.75993e-05 -6.64184e-22)
(0.0683662 -3.81398e-05 1.25758e-23)
(0.0676458 5.34758e-07 5.83153e-20)
(0.0684628 -3.71296e-05 -2.04854e-20)
(0.0682658 -3.7559e-05 -1.81651e-22)
(0.0682774 -3.80984e-05 -6.39392e-22)
(0.0683677 -3.81316e-05 5.72385e-20)
(0.0683743 -3.52141e-05 -1.96775e-21)
(0.0681781 -3.56605e-05 -4.22987e-20)
(0.0681884 -3.61734e-05 -2.97226e-22)
(0.0682786 -3.62053e-05 3.85448e-20)
(0.0682856 -2.82201e-05 2.19607e-21)
(0.0680902 -2.87211e-05 -7.83438e-23)
(0.0680991 -2.91317e-05 -2.84981e-22)
(0.0681893 -2.91578e-05 -3.29158e-22)
(0.0681976 -2.36732e-05 3.16891e-21)
(0.0680029 -2.42099e-05 -3.95261e-20)
(0.0680106 -2.45549e-05 4.27526e-20)
(0.0681005 -2.45717e-05 3.04434e-22)
(0.068109 -2.13859e-05 -1.01699e-21)
(0.0679149 -2.19383e-05 -6.2495e-20)
(0.0679213 -2.22485e-05 -6.23078e-20)
(0.0679252 -2.25709e-05 6.61214e-20)
(0.0676543 5.78294e-07 4.3379e-19)
(0.0680234 -2.1434e-05 2.63873e-21)
(0.0678303 -2.19835e-05 -6.14325e-20)
(0.0678354 -2.22916e-05 4.17171e-20)
(0.067838 -2.2612e-05 1.01809e-19)
(0.0679288 -2.26605e-05 6.61247e-20)
(0.0679354 -2.41241e-05 6.45095e-21)
(0.067743 -2.46508e-05 -7.21184e-23)
(0.0677469 -2.49982e-05 8.04369e-23)
(0.0677482 -2.53636e-05 -3.69551e-25)
(0.0678437 -2.57473e-05 -6.05485e-20)
(0.0678481 -2.90932e-05 4.5911e-23)
(0.0676564 -2.95738e-05 6.01711e-20)
(0.067659 -2.9992e-05 -1.26847e-21)
(0.0677487 -3.00169e-05 -1.02117e-19)
)
;

boundaryField
{
    inlet
    {
        type            calculated;
        value           uniform (0 0 0);
    }
    outlet2
    {
        type            calculated;
        value           uniform (0 0 0);
    }
    outlet1
    {
        type            calculated;
        value           nonuniform List<vector> 0();
    }
    wall
    {
        type            calculated;
        value           uniform (0 0 0);
    }
    symmetryBottom
    {
        type            symmetry;
    }
    symmetryZ0
    {
        type            symmetry;
    }
    symmetryZ05
    {
        type            symmetry;
    }
    procBoundary1to0
    {
        type            processor;
        value           uniform (0 0 0);
    }
}


// ************************************************************************* //
