/*--------------------------------*- C++ -*----------------------------------*\
| =========                 |                                                 |
| \\      /  F ield         | OpenFOAM: The Open Source CFD Toolbox           |
|  \\    /   O peration     | Version:  2412                                  |
|   \\  /    A nd           | Website:  www.openfoam.com                      |
|    \\/     M anipulation  |                                                 |
\*---------------------------------------------------------------------------*/
FoamFile
{
    version     2.0;
    format      ascii;
    arch        "LSB;label=32;scalar=64";
    class       volScalarField;
    location    "1.4e-06";
    object      T;
}
// * * * * * * * * * * * * * * * * * * * * * * * * * * * * * * * * * * * * * //

dimensions      [0 0 0 0 0 0 0];

internalField   nonuniform List<scalar> 
84
(
200.001
199.989
200.004
199.998
199.983
199.998
199.998
199.982
199.997
199.998
199.982
199.997
199.998
199.982
199.997
199.998
199.982
199.997
199.998
199.982
199.997
199.998
199.982
199.997
199.998
199.982
199.997
199.998
199.982
199.997
199.998
199.982
199.997
199.998
199.979
199.994
200.839
200.833
200.833
200.002
200
200
200.002
200
200
200.002
200
200
200.002
200.002
200
200
200
200.163
200.16
200.162
200.162
200.754
200.747
200.758
200.758
201.309
201.3
201.319
201.318
203.449
203.428
203.479
203.53
199.929
198.608
198.612
198.592
198.572
198.561
199.671
199.67
199.666
199.661
199.666
199.864
199.862
199.86
199.86
)
;

boundaryField
{
    inlet
    {
        type            calculated;
        value           uniform 0;
    }
    outlet2
    {
        type            calculated;
        value           uniform 0;
    }
    outlet1
    {
        type            calculated;
        value           nonuniform List<scalar> 0();
    }
    wall
    {
        type            calculated;
        value           uniform 0;
    }
    symmetryBottom
    {
        type            symmetry;
    }
    symmetryZ0
    {
        type            symmetry;
    }
    symmetryZ05
    {
        type            symmetry;
    }
    procBoundary1to0
    {
        type            processor;
        value           uniform 0;
    }
}


// ************************************************************************* //
