/*--------------------------------*- C++ -*----------------------------------*\
| =========                 |                                                 |
| \\      /  F ield         | OpenFOAM: The Open Source CFD Toolbox           |
|  \\    /   O peration     | Version:  2412                                  |
|   \\  /    A nd           | Website:  www.openfoam.com                      |
|    \\/     M anipulation  |                                                 |
\*---------------------------------------------------------------------------*/
FoamFile
{
    version     2.0;
    format      ascii;
    arch        "LSB;label=32;scalar=64";
    class       volVectorField;
    location    "1.4e-06";
    object      U;
}
// * * * * * * * * * * * * * * * * * * * * * * * * * * * * * * * * * * * * * //

dimensions      [0 0 0 0 0 0 0];

internalField   nonuniform List<vector> 
84
(
(2636.39 -0.00116305 0)
(2632.39 -0.00718471 0)
(2632.86 -0.00653888 -1.94308e-15)
(2636.39 -1.32489 0)
(2632.39 -1.42198 0)
(2632.86 -1.41631 -1.94294e-15)
(2636.39 -1.32353 0)
(2632.39 -1.42053 0)
(2632.86 -1.41486 3.192e-15)
(2636.39 -1.32353 0)
(2632.39 -1.42053 0)
(2632.86 -1.41486 -4.23306e-15)
(2636.39 -1.32353 0)
(2632.39 -1.42053 0)
(2632.86 -1.41486 -6.93921e-15)
(2636.39 -1.32353 0)
(2632.39 -1.42053 0)
(2632.86 -1.41486 4.09409e-15)
(2636.39 -1.32353 0)
(2632.39 -1.42053 0)
(2632.86 -1.41486 -4.99636e-15)
(2636.39 -1.32353 0)
(2632.39 -1.42053 0)
(2632.86 -1.41486 -5.75956e-15)
(2636.39 -1.32353 0)
(2632.39 -1.42053 0)
(2632.86 -1.41486 2.08171e-15)
(2636.39 -1.32353 0)
(2632.39 -1.42053 0)
(2632.86 -1.41486 -4.99646e-15)
(2636.39 -1.32353 0)
(2632.39 -1.42052 0)
(2632.86 -1.41486 -1.22825e-14)
(2636.39 -1.32372 0)
(2632.39 -1.41486 0)
(2632.86 -1.40982 0)
(2634.78 1.45209 3.90455e-17)
(2634.69 1.44372 1.54589e-15)
(2634.71 1.4436 1.50391e-16)
(2635.25 -1.42832 3.50922e-17)
(2635.16 -1.44899 1.62895e-15)
(2635.18 -1.44835 -8.21257e-18)
(2635.23 -1.4286 -5.96839e-17)
(2635.13 -1.44925 -7.43113e-16)
(2635.16 -1.44832 -3.17758e-15)
(2635.21 -1.42885 7.82154e-17)
(2635.11 -1.4495 -2.56052e-17)
(2635.12 -1.47007 4.84724e-19)
(2634.95 0.02083 2.27151e-15)
(2635.19 -1.42915 -7.88497e-16)
(2635.09 -1.4498 -7.01181e-18)
(2635.1 -1.47037 -2.46767e-17)
(2635.12 -1.46972 2.20617e-15)
(2635.16 -1.35716 -7.58373e-17)
(2635.07 -1.37827 -1.63483e-15)
(2635.07 -1.39788 -1.1486e-17)
(2635.09 -1.39728 1.48757e-15)
(2635.11 -1.089 8.47454e-17)
(2635.02 -1.11148 -3.03183e-18)
(2635.03 -1.12722 -1.10271e-17)
(2635.05 -1.12675 -1.27197e-17)
(2635.09 -0.914707 1.22443e-16)
(2634.99 -0.938091 -1.53157e-15)
(2635 -0.951354 1.6564e-15)
(2635.02 -0.950755 1.17795e-17)
(2635.06 -0.827396 -3.93462e-17)
(2634.97 -0.851164 -2.42469e-15)
(2634.97 -0.863118 -2.4172e-15)
(2634.97 -0.875578 2.565e-15)
(2634.95 0.0225229 1.68949e-14)
(2635.06 -0.830302 1.02218e-16)
(2634.97 -0.853984 -2.38644e-15)
(2634.97 -0.865885 1.62044e-15)
(2634.97 -0.878298 3.9545e-15)
(2635 -0.879016 2.56502e-15)
(2635.05 -0.935713 2.50216e-16)
(2634.96 -0.958829 -2.80515e-18)
(2634.96 -0.972285 3.12853e-18)
(2634.96 -0.986477 -1.43731e-20)
(2634.98 -0.999999 -2.35165e-15)
(2635.04 -1.1299 1.78306e-18)
(2634.95 -1.15178 2.34343e-15)
(2634.95 -1.16803 -4.94002e-17)
(2634.97 -1.16746 -3.97168e-15)
)
;

boundaryField
{
    inlet
    {
        type            calculated;
        value           uniform (0 0 0);
    }
    outlet2
    {
        type            calculated;
        value           uniform (0 0 0);
    }
    outlet1
    {
        type            calculated;
        value           nonuniform List<vector> 0();
    }
    wall
    {
        type            calculated;
        value           uniform (0 0 0);
    }
    symmetryBottom
    {
        type            symmetry;
    }
    symmetryZ0
    {
        type            symmetry;
    }
    symmetryZ05
    {
        type            symmetry;
    }
    procBoundary1to0
    {
        type            processor;
        value           uniform (0 0 0);
    }
}


// ************************************************************************* //
