/*--------------------------------*- C++ -*----------------------------------*\
| =========                 |                                                 |
| \\      /  F ield         | OpenFOAM: The Open Source CFD Toolbox           |
|  \\    /   O peration     | Version:  2412                                  |
|   \\  /    A nd           | Website:  www.openfoam.com                      |
|    \\/     M anipulation  |                                                 |
\*---------------------------------------------------------------------------*/
FoamFile
{
    version     2.0;
    format      ascii;
    arch        "LSB;label=32;scalar=64";
    class       volScalarField;
    location    "6.7e-06";
    object      E_dof0;
}
// * * * * * * * * * * * * * * * * * * * * * * * * * * * * * * * * * * * * * //

dimensions      [0 0 0 0 0 0 0];

internalField   nonuniform List<scalar> 
84
(
96.397
60.695
64.6229
64.3424
64.3624
64.3665
64.3715
64.8702
102.466
64.6162
68.8424
68.6098
68.697
68.7696
68.8454
69.3701
101.261
64.7544
68.3187
68.1629
68.2362
68.3016
68.3694
68.8915
100.808
63.8636
68.0041
67.7631
67.8373
67.8967
68.4161
100.635
63.4113
67.5563
67.3079
67.3746
67.4263
67.943
99.9931
62.9958
67.1084
66.8546
66.9138
66.9578
67.4719
99.3635
62.5927
66.6704
66.4118
66.4636
66.5001
67.0116
98.4564
62.5051
66.2034
65.9851
66.0264
66.0561
66.565
97.9517
61.8671
65.868
65.601
65.6398
66.1457
97.4428
61.353
65.3363
65.0626
65.0932
65.5957
96.695
60.9777
64.9078
64.6305
64.6536
65.1537
95.5229
60.7353
64.4679
64.2055
64.2204
64.221
64.7193
)
;

boundaryField
{
    inlet
    {
        type            calculated;
        value           nonuniform List<scalar> 0();
    }
    outlet2
    {
        type            calculated;
        value           uniform 99.4306;
    }
    outlet1
    {
        type            calculated;
        value           uniform 99.4306;
    }
    wall
    {
        type            calculated;
        value           uniform 99.4306;
    }
    symmetryBottom
    {
        type            symmetry;
    }
    symmetryZ0
    {
        type            symmetry;
    }
    symmetryZ05
    {
        type            symmetry;
    }
    procBoundary0to1
    {
        type            processor;
        value           uniform 99.4306;
    }
}


// ************************************************************************* //
