/*--------------------------------*- C++ -*----------------------------------*\
| =========                 |                                                 |
| \\      /  F ield         | OpenFOAM: The Open Source CFD Toolbox           |
|  \\    /   O peration     | Version:  2412                                  |
|   \\  /    A nd           | Website:  www.openfoam.com                      |
|    \\/     M anipulation  |                                                 |
\*---------------------------------------------------------------------------*/
FoamFile
{
    version     2.0;
    format      ascii;
    arch        "LSB;label=32;scalar=64";
    class       volVectorField;
    location    "6.7e-06";
    object      rhoU;
}
// * * * * * * * * * * * * * * * * * * * * * * * * * * * * * * * * * * * * * //

dimensions      [0 0 0 0 0 0 0];

internalField   nonuniform List<vector> 
84
(
(0.0718774 0.00018644 1.88719e-19)
(0.0453882 0.000120306 -1.79671e-19)
(0.048286 0.000129563 -3.00545e-19)
(0.0480804 0.000130892 1.99693e-19)
(0.0480951 0.000132843 -3.02028e-20)
(0.0480982 0.000134822 2.5436e-20)
(0.048102 0.000136861 2.8857e-19)
(0.0484723 0.000137669 3.11998e-20)
(0.0763676 -0.000203832 1.90576e-19)
(0.0482962 -0.000133861 -1.81056e-19)
(0.0514133 -0.000143466 -3.95373e-19)
(0.0512433 -0.000145267 5.36153e-20)
(0.0513079 -0.000147662 -7.39124e-19)
(0.0513618 -0.00015011 1.87962e-19)
(0.051418 -0.000152641 6.0399e-19)
(0.0518074 -0.000153484 1.13459e-19)
(0.0754765 -0.000181295 -7.52039e-19)
(0.0483957 -0.000152705 1.5215e-19)
(0.0510251 -0.000139923 2.17866e-19)
(0.0509114 -0.000144553 -2.98162e-20)
(0.0509657 -0.000146702 -1.12246e-20)
(0.0510142 -0.00014913 2.86491e-19)
(0.0510646 -0.000151629 -2.49458e-19)
(0.051452 -0.000152468 -2.74216e-19)
(0.0751404 -0.000188294 -7.19076e-19)
(0.0477367 -0.000135103 3.38389e-19)
(0.0507909 -0.000143922 -4.13444e-20)
(0.0506146 -0.000145744 -6.63634e-19)
(0.0506695 -0.000148158 6.70856e-19)
(0.0507136 -0.000150624 1.04483e-19)
(0.051099 -0.00015146 -2.49747e-19)
(0.0750107 -0.000203715 -4.39688e-19)
(0.0474009 -0.000133102 -1.11827e-19)
(0.0504582 -0.000143123 1.42948e-20)
(0.0502765 -0.000144854 4.32266e-21)
(0.0503258 -0.000147242 -2.26714e-19)
(0.0503642 -0.000149678 2.05512e-19)
(0.0507477 -0.000150511 4.18293e-19)
(0.0745322 -0.000196112 -2.78433e-19)
(0.0470903 -0.00012787 3.58451e-19)
(0.0501237 -0.000137607 -4.33722e-20)
(0.0499379 -0.000139302 4.24534e-19)
(0.0499816 -0.000141638 -3.94765e-19)
(0.0500143 -0.000144022 3.31612e-19)
(0.0503958 -0.000144824 -7.06999e-19)
(0.0740489 -0.000156758 -1.09475e-22)
(0.0467807 -0.000102474 3.27522e-19)
(0.0497874 -0.000110044 -4.13084e-20)
(0.0495979 -0.000111414 1.79525e-21)
(0.049636 -0.000113265 3.48989e-19)
(0.0496629 -0.000115155 3.7888e-20)
(0.0500425 -0.000115799 3.46196e-19)
(0.0733611 -0.000114857 7.46864e-21)
(0.0467034 -0.000102464 5.72137e-21)
(0.0494295 -9.13223e-05 -2.13603e-21)
(0.0492694 -9.47578e-05 -5.51841e-21)
(0.0492995 -9.61714e-05 -1.08347e-21)
(0.0493211 -9.78009e-05 2.66251e-21)
(0.0496987 -9.83463e-05 -2.73903e-19)
(0.072919 -0.000109546 1.00906e-18)
(0.0461797 -7.82466e-05 -1.06539e-19)
(0.0491256 -8.34747e-05 -7.25359e-19)
(0.0489287 -8.45082e-05 -2.11292e-19)
(0.0489558 -8.58988e-05 4.05034e-19)
(0.0493309 -8.63847e-05 -5.52429e-20)
(0.0726947 -0.000115393 -3.53038e-19)
(0.0459011 -7.4926e-05 3.80687e-20)
(0.0488426 -8.06204e-05 -3.3442e-19)
(0.0486422 -8.15193e-05 3.75217e-19)
(0.0486653 -8.27964e-05 6.2223e-19)
(0.0490385 -8.32737e-05 -7.5276e-20)
(0.0721038 -0.000120644 -4.52315e-19)
(0.0455999 -8.63214e-05 5.17039e-20)
(0.0485 -9.12547e-05 -2.73416e-21)
(0.0482967 -9.24132e-05 6.53194e-19)
(0.0483138 -9.38766e-05 6.56461e-19)
(0.0486851 -9.44149e-05 1.70707e-20)
(0.0712224 -1.93631e-05 -3.79434e-20)
(0.0454154 -0.000118924 2.94191e-21)
(0.0481681 -0.000105389 -1.60763e-22)
(0.0479757 -0.000108447 3.9507e-19)
(0.0479867 -0.00011001 -4.88452e-20)
(0.0479872 -0.000111725 3.72521e-21)
(0.0483571 -0.000112372 -3.24935e-19)
)
;

boundaryField
{
    inlet
    {
        type            calculated;
        value           nonuniform List<vector> 0();
    }
    outlet2
    {
        type            calculated;
        value           uniform (0 0 0);
    }
    outlet1
    {
        type            calculated;
        value           uniform (0 0 0);
    }
    wall
    {
        type            calculated;
        value           uniform (0 0 0);
    }
    symmetryBottom
    {
        type            symmetry;
    }
    symmetryZ0
    {
        type            symmetry;
    }
    symmetryZ05
    {
        type            symmetry;
    }
    procBoundary0to1
    {
        type            processor;
        value           uniform (0 0 0);
    }
}


// ************************************************************************* //
