/*--------------------------------*- C++ -*----------------------------------*\
| =========                 |                                                 |
| \\      /  F ield         | OpenFOAM: The Open Source CFD Toolbox           |
|  \\    /   O peration     | Version:  2412                                  |
|   \\  /    A nd           | Website:  www.openfoam.com                      |
|    \\/     M anipulation  |                                                 |
\*---------------------------------------------------------------------------*/
FoamFile
{
    version     2.0;
    format      ascii;
    arch        "LSB;label=32;scalar=64";
    class       volScalarField;
    location    "8.6e-06";
    object      T;
}
// * * * * * * * * * * * * * * * * * * * * * * * * * * * * * * * * * * * * * //

dimensions      [0 0 0 0 0 0 0];

internalField   nonuniform List<scalar> 
84
(
203.233
203.228
203.361
203.404
203.457
203.511
203.571
203.562
199.999
199.922
200.007
199.999
200
200
199.999
200.001
199.974
199.92
200.002
199.996
199.996
199.996
199.995
199.997
200.003
199.918
200.004
199.996
199.996
199.995
199.998
199.994
199.916
200.004
199.996
199.996
199.995
199.997
199.998
199.916
200.004
199.996
199.996
199.995
199.997
199.996
199.918
200.003
199.996
199.996
199.995
199.997
199.974
199.912
200.004
199.995
199.996
199.995
199.997
200.006
199.915
200.003
199.995
199.995
199.997
199.993
199.916
200.003
199.995
199.995
199.997
200.002
199.914
200.003
199.995
199.995
199.997
199.976
199.895
200.005
199.996
199.997
199.995
199.998
)
;

boundaryField
{
    inlet
    {
        type            calculated;
        value           nonuniform List<scalar> 0();
    }
    outlet2
    {
        type            calculated;
        value           uniform 0;
    }
    outlet1
    {
        type            calculated;
        value           uniform 0;
    }
    wall
    {
        type            calculated;
        value           uniform 0;
    }
    symmetryBottom
    {
        type            symmetry;
    }
    symmetryZ0
    {
        type            symmetry;
    }
    symmetryZ05
    {
        type            symmetry;
    }
    procBoundary0to1
    {
        type            processor;
        value           uniform 0;
    }
}


// ************************************************************************* //
