/*--------------------------------*- C++ -*----------------------------------*\
| =========                 |                                                 |
| \\      /  F ield         | OpenFOAM: The Open Source CFD Toolbox           |
|  \\    /   O peration     | Version:  2412                                  |
|   \\  /    A nd           | Website:  www.openfoam.com                      |
|    \\/     M anipulation  |                                                 |
\*---------------------------------------------------------------------------*/
FoamFile
{
    version     2.0;
    format      ascii;
    arch        "LSB;label=32;scalar=64";
    class       volScalarField;
    location    "3.2e-06";
    object      E;
}
// * * * * * * * * * * * * * * * * * * * * * * * * * * * * * * * * * * * * * //

dimensions      [0 0 0 0 0 0 0];

internalField   nonuniform List<scalar> 
84
(
99.433
54.3808
59.79
99.4429
54.3959
59.8035
99.4404
54.3941
59.8016
99.4404
54.3941
59.8016
99.4404
54.3941
59.8016
99.4404
54.3941
59.8016
99.4404
54.3941
59.8016
99.4404
54.3941
59.8016
99.4404
54.3941
59.8016
99.4404
54.3941
59.8016
99.4404
54.3941
59.8016
99.4405
54.3905
59.7989
81.9105
80.6766
80.9696
84.3777
83.0373
83.3406
84.1229
82.7935
83.0944
83.8688
82.5503
82.6251
80.5807
83.6152
82.3076
82.3784
82.6347
83.3633
82.0664
82.1332
82.389
83.1171
81.8306
81.8935
82.1487
82.8747
81.5984
81.6575
81.9114
82.6553
81.3872
81.4429
81.4533
80.6371
82.3364
81.0847
81.1353
81.1412
81.3961
82.1021
80.86
80.9068
80.9099
81.2004
81.8597
80.6277
80.6708
80.923
)
;

boundaryField
{
    inlet
    {
        type            calculated;
        value           uniform 0;
    }
    outlet2
    {
        type            calculated;
        value           uniform 0;
    }
    outlet1
    {
        type            calculated;
        value           nonuniform List<scalar> 0();
    }
    wall
    {
        type            calculated;
        value           uniform 0;
    }
    symmetryBottom
    {
        type            symmetry;
    }
    symmetryZ0
    {
        type            symmetry;
    }
    symmetryZ05
    {
        type            symmetry;
    }
    procBoundary1to0
    {
        type            processor;
        value           uniform 0;
    }
}


// ************************************************************************* //
