/*--------------------------------*- C++ -*----------------------------------*\
| =========                 |                                                 |
| \\      /  F ield         | OpenFOAM: The Open Source CFD Toolbox           |
|  \\    /   O peration     | Version:  2412                                  |
|   \\  /    A nd           | Website:  www.openfoam.com                      |
|    \\/     M anipulation  |                                                 |
\*---------------------------------------------------------------------------*/
FoamFile
{
    version     2.0;
    format      ascii;
    arch        "LSB;label=32;scalar=64";
    class       volScalarField;
    location    "3.2e-06";
    object      rho;
}
// * * * * * * * * * * * * * * * * * * * * * * * * * * * * * * * * * * * * * //

dimensions      [0 0 0 0 0 0 0];

internalField   nonuniform List<scalar> 
84
(
2.81092e-05
1.5504e-05
1.70008e-05
2.8112e-05
1.55083e-05
1.70046e-05
2.81113e-05
1.55078e-05
1.70041e-05
2.81113e-05
1.55078e-05
1.70041e-05
2.81113e-05
1.55078e-05
1.70041e-05
2.81113e-05
1.55078e-05
1.70041e-05
2.81113e-05
1.55078e-05
1.70041e-05
2.81113e-05
1.55078e-05
1.70041e-05
2.81113e-05
1.55078e-05
1.70041e-05
2.81113e-05
1.55078e-05
1.70041e-05
2.81113e-05
1.55078e-05
1.70041e-05
2.81113e-05
1.55068e-05
1.70033e-05
2.32114e-05
2.28695e-05
2.29512e-05
2.38949e-05
2.35239e-05
2.36085e-05
2.38237e-05
2.34556e-05
2.35395e-05
2.37526e-05
2.33875e-05
2.34082e-05
2.2836e-05
2.36816e-05
2.33196e-05
2.33391e-05
2.34109e-05
2.36107e-05
2.32517e-05
2.32701e-05
2.33417e-05
2.35399e-05
2.31839e-05
2.32012e-05
2.32726e-05
2.34698e-05
2.31168e-05
2.3133e-05
2.3204e-05
2.33979e-05
2.3048e-05
2.3063e-05
2.30658e-05
2.2853e-05
2.33313e-05
2.29841e-05
2.29982e-05
2.29999e-05
2.30714e-05
2.32603e-05
2.29162e-05
2.29291e-05
2.293e-05
2.30113e-05
2.31912e-05
2.28499e-05
2.28618e-05
2.29324e-05
)
;

boundaryField
{
    inlet
    {
        type            calculated;
        value           uniform 0;
    }
    outlet2
    {
        type            calculated;
        value           uniform 0;
    }
    outlet1
    {
        type            calculated;
        value           nonuniform List<scalar> 0();
    }
    wall
    {
        type            calculated;
        value           uniform 0;
    }
    symmetryBottom
    {
        type            symmetry;
    }
    symmetryZ0
    {
        type            symmetry;
    }
    symmetryZ05
    {
        type            symmetry;
    }
    procBoundary1to0
    {
        type            processor;
        value           uniform 0;
    }
}


// ************************************************************************* //
