/*--------------------------------*- C++ -*----------------------------------*\
| =========                 |                                                 |
| \\      /  F ield         | OpenFOAM: The Open Source CFD Toolbox           |
|  \\    /   O peration     | Version:  2412                                  |
|   \\  /    A nd           | Website:  www.openfoam.com                      |
|    \\/     M anipulation  |                                                 |
\*---------------------------------------------------------------------------*/
FoamFile
{
    version     2.0;
    format      ascii;
    arch        "LSB;label=32;scalar=64";
    class       volScalarField;
    location    "3.2e-06";
    object      T;
}
// * * * * * * * * * * * * * * * * * * * * * * * * * * * * * * * * * * * * * //

dimensions      [0 0 0 0 0 0 0];

internalField   nonuniform List<scalar> 
84
(
200.004
199.878
200.027
199.991
199.852
200.005
199.988
199.848
200.001
199.988
199.848
200.001
199.988
199.848
200.001
199.988
199.848
200.001
199.988
199.848
200.001
199.988
199.848
200.001
199.988
199.848
200.001
199.988
199.848
200.001
199.988
199.848
200.001
199.988
199.839
199.995
201.966
201.902
201.905
200.01
199.998
199.999
200.01
199.998
199.999
200.01
199.998
199.999
200.007
200.011
199.999
200
200.001
200.356
200.334
200.339
200.339
201.762
201.702
201.73
201.728
203.084
202.988
203.037
203.034
208.359
208.103
208.239
208.364
199.594
196.713
196.784
196.734
196.686
196.621
199.224
199.234
199.223
199.212
199.242
199.681
199.678
199.674
199.674
)
;

boundaryField
{
    inlet
    {
        type            calculated;
        value           uniform 0;
    }
    outlet2
    {
        type            calculated;
        value           uniform 0;
    }
    outlet1
    {
        type            calculated;
        value           nonuniform List<scalar> 0();
    }
    wall
    {
        type            calculated;
        value           uniform 0;
    }
    symmetryBottom
    {
        type            symmetry;
    }
    symmetryZ0
    {
        type            symmetry;
    }
    symmetryZ05
    {
        type            symmetry;
    }
    procBoundary1to0
    {
        type            processor;
        value           uniform 0;
    }
}


// ************************************************************************* //
