/*--------------------------------*- C++ -*----------------------------------*\
| =========                 |                                                 |
| \\      /  F ield         | OpenFOAM: The Open Source CFD Toolbox           |
|  \\    /   O peration     | Version:  2412                                  |
|   \\  /    A nd           | Website:  www.openfoam.com                      |
|    \\/     M anipulation  |                                                 |
\*---------------------------------------------------------------------------*/
FoamFile
{
    version     2.0;
    format      ascii;
    arch        "LSB;label=32;scalar=64";
    class       volScalarField;
    location    "9e-07";
    object      E_dof0;
}
// * * * * * * * * * * * * * * * * * * * * * * * * * * * * * * * * * * * * * //

dimensions      [0 0 0 0 0 0 0];

internalField   nonuniform List<scalar> 
84
(
99.4484
93.682
93.7591
93.7587
93.759
93.7592
93.7594
93.848
100.284
94.4858
94.5754
94.5873
94.6003
94.6136
94.6274
94.7165
100.188
94.4119
94.4923
94.5031
94.5147
94.5267
94.5391
94.6282
100.116
94.3321
94.4195
94.4292
94.4399
94.4509
94.5399
100.04
94.2492
94.3353
94.3438
94.3531
94.3627
94.4517
99.9547
94.167
94.2518
94.259
94.267
94.2752
94.3641
99.8712
94.0866
94.1701
94.176
94.1827
94.1896
94.2785
99.7824
94.0112
94.089
94.0937
94.0992
94.1047
94.1936
99.7141
93.9396
94.0209
94.0246
94.029
94.1178
99.6063
93.8306
93.9102
93.9121
93.9148
94.0034
99.5235
93.7531
93.8314
93.8321
93.8335
93.9221
99.3537
93.674
93.7479
93.7473
93.7474
93.7474
93.836
)
;

boundaryField
{
    inlet
    {
        type            calculated;
        value           nonuniform List<scalar> 0();
    }
    outlet2
    {
        type            calculated;
        value           uniform 99.4306;
    }
    outlet1
    {
        type            calculated;
        value           uniform 99.4306;
    }
    wall
    {
        type            calculated;
        value           uniform 99.4306;
    }
    symmetryBottom
    {
        type            symmetry;
    }
    symmetryZ0
    {
        type            symmetry;
    }
    symmetryZ05
    {
        type            symmetry;
    }
    procBoundary0to1
    {
        type            processor;
        value           uniform 99.4306;
    }
}


// ************************************************************************* //
