/*--------------------------------*- C++ -*----------------------------------*\
| =========                 |                                                 |
| \\      /  F ield         | OpenFOAM: The Open Source CFD Toolbox           |
|  \\    /   O peration     | Version:  2412                                  |
|   \\  /    A nd           | Website:  www.openfoam.com                      |
|    \\/     M anipulation  |                                                 |
\*---------------------------------------------------------------------------*/
FoamFile
{
    version     2.0;
    format      ascii;
    arch        "LSB;label=32;scalar=64";
    class       volScalarField;
    location    "9e-07";
    object      rho;
}
// * * * * * * * * * * * * * * * * * * * * * * * * * * * * * * * * * * * * * //

dimensions      [0 0 0 0 0 0 0];

internalField   nonuniform List<scalar> 
84
(
2.8116e-05
2.65043e-05
2.65256e-05
2.65256e-05
2.65257e-05
2.65258e-05
2.65259e-05
2.65506e-05
2.83471e-05
2.67268e-05
2.67516e-05
2.67549e-05
2.67585e-05
2.67623e-05
2.67661e-05
2.6791e-05
2.83204e-05
2.67061e-05
2.67283e-05
2.67314e-05
2.67346e-05
2.6738e-05
2.67414e-05
2.67663e-05
2.83003e-05
2.66838e-05
2.6708e-05
2.67107e-05
2.67137e-05
2.67168e-05
2.67416e-05
2.8279e-05
2.66606e-05
2.66845e-05
2.66868e-05
2.66894e-05
2.66921e-05
2.6717e-05
2.8255e-05
2.66375e-05
2.6661e-05
2.6663e-05
2.66652e-05
2.66675e-05
2.66923e-05
2.8231e-05
2.66144e-05
2.66375e-05
2.66391e-05
2.6641e-05
2.66429e-05
2.66677e-05
2.82054e-05
2.65926e-05
2.66141e-05
2.66154e-05
2.66168e-05
2.66184e-05
2.66432e-05
2.81829e-05
2.65692e-05
2.65916e-05
2.65926e-05
2.65937e-05
2.66185e-05
2.81605e-05
2.65461e-05
2.65681e-05
2.65687e-05
2.65695e-05
2.65943e-05
2.81354e-05
2.65226e-05
2.65443e-05
2.65445e-05
2.65449e-05
2.65697e-05
2.80873e-05
2.65001e-05
2.65205e-05
2.65204e-05
2.65204e-05
2.65204e-05
2.65451e-05
)
;

boundaryField
{
    inlet
    {
        type            calculated;
        value           nonuniform List<scalar> 0();
    }
    outlet2
    {
        type            calculated;
        value           uniform 0;
    }
    outlet1
    {
        type            calculated;
        value           uniform 0;
    }
    wall
    {
        type            calculated;
        value           uniform 0;
    }
    symmetryBottom
    {
        type            symmetry;
    }
    symmetryZ0
    {
        type            symmetry;
    }
    symmetryZ05
    {
        type            symmetry;
    }
    procBoundary0to1
    {
        type            processor;
        value           uniform 0;
    }
}


// ************************************************************************* //
