/*--------------------------------*- C++ -*----------------------------------*\
| =========                 |                                                 |
| \\      /  F ield         | OpenFOAM: The Open Source CFD Toolbox           |
|  \\    /   O peration     | Version:  2412                                  |
|   \\  /    A nd           | Website:  www.openfoam.com                      |
|    \\/     M anipulation  |                                                 |
\*---------------------------------------------------------------------------*/
FoamFile
{
    version     2.0;
    format      ascii;
    arch        "LSB;label=32;scalar=64";
    class       volVectorField;
    location    "9e-07";
    object      rhoU;
}
// * * * * * * * * * * * * * * * * * * * * * * * * * * * * * * * * * * * * * //

dimensions      [0 0 0 0 0 0 0];

internalField   nonuniform List<vector> 
84
(
(0.0741195 2.68372e-05 3.0138e-20)
(0.0698458 2.57666e-05 -3.00209e-20)
(0.0699026 2.61659e-05 -6.98608e-20)
(0.0699024 2.65587e-05 3.22781e-20)
(0.0699026 2.69636e-05 2.29257e-22)
(0.0699028 2.7381e-05 3.70853e-21)
(0.069903 2.78115e-05 6.33929e-20)
(0.0699686 2.78303e-05 1.28571e-20)
(0.0747375 -2.68983e-05 2.68951e-20)
(0.0704404 -2.59912e-05 -2.59457e-20)
(0.0705066 -2.63939e-05 -8.54959e-20)
(0.0705154 -2.67945e-05 2.01324e-21)
(0.070525 -2.72076e-05 -1.43203e-19)
(0.0705349 -2.76335e-05 1.58042e-20)
(0.0705451 -2.80731e-05 1.20171e-19)
(0.0706111 -2.80892e-05 3.13801e-20)
(0.0746666 -2.64755e-05 -1.27923e-19)
(0.0703857 -2.62487e-05 1.90428e-20)
(0.0704449 -2.63722e-05 4.22853e-20)
(0.0704529 -2.67759e-05 -1.02173e-21)
(0.0704616 -2.71883e-05 -6.34004e-22)
(0.0704705 -2.76137e-05 5.85131e-20)
(0.0704796 -2.80526e-05 -4.54299e-20)
(0.0705457 -2.80687e-05 -6.0059e-20)
(0.0746132 -2.6923e-05 -1.29161e-19)
(0.0703266 -2.6346e-05 5.92019e-20)
(0.070391 -2.67573e-05 -1.21546e-21)
(0.0703982 -2.71691e-05 -1.34584e-19)
(0.0704061 -2.75939e-05 1.20746e-19)
(0.0704142 -2.80322e-05 2.95014e-20)
(0.0704802 -2.80483e-05 -4.46314e-20)
(0.0745567 -2.72415e-05 -7.11041e-20)
(0.0702651 -2.63253e-05 -2.81761e-20)
(0.0703286 -2.67387e-05 3.82007e-22)
(0.0703349 -2.71499e-05 9.27272e-23)
(0.0703418 -2.75741e-05 -4.12179e-20)
(0.0703489 -2.80118e-05 3.40685e-20)
(0.0704148 -2.80279e-05 8.98461e-20)
(0.074493 -2.58523e-05 -4.42124e-20)
(0.0702036 -2.49709e-05 7.18709e-20)
(0.0702661 -2.53638e-05 -9.39596e-22)
(0.0702714 -2.57545e-05 8.75091e-20)
(0.0702774 -2.61576e-05 -7.56138e-20)
(0.0702835 -2.65734e-05 6.21705e-20)
(0.0703494 -2.65889e-05 -1.4006e-19)
(0.074429 -2.0849e-05 -2.88931e-24)
(0.0701419 -2.01213e-05 7.09887e-20)
(0.0702035 -2.0438e-05 -9.22244e-22)
(0.0702078 -2.07526e-05 -2.20968e-22)
(0.0702128 -2.10771e-05 7.47396e-20)
(0.0702179 -2.14119e-05 1.18634e-20)
(0.0702837 -2.14247e-05 7.83581e-20)
(0.074361 -1.72505e-05 6.7599e-25)
(0.0700839 -1.71687e-05 2.58315e-23)
(0.0701412 -1.72165e-05 -2.25146e-22)
(0.0701447 -1.74846e-05 -1.52011e-22)
(0.0701486 -1.77582e-05 2.86397e-23)
(0.0701527 -1.80405e-05 -2.21275e-23)
(0.0702185 -1.80516e-05 -5.7677e-20)
(0.0743013 -1.60322e-05 1.48866e-19)
(0.070022 -1.56302e-05 -1.94368e-21)
(0.0700817 -1.58789e-05 -1.43894e-19)
(0.0700842 -1.61266e-05 -5.94208e-20)
(0.0700872 -1.63823e-05 7.36559e-20)
(0.070153 -1.63926e-05 -4.07896e-23)
(0.0742419 -1.63116e-05 -5.56772e-20)
(0.069961 -1.57016e-05 7.70439e-22)
(0.0700198 -1.59516e-05 -7.20454e-20)
(0.0700214 -1.61989e-05 7.26378e-20)
(0.0700234 -1.6454e-05 1.35843e-19)
(0.0700891 -1.64645e-05 6.06711e-24)
(0.0741757 -1.81224e-05 -7.30456e-20)
(0.069899 -1.75978e-05 9.59929e-22)
(0.0699567 -1.78762e-05 2.66548e-23)
(0.0699573 -1.81537e-05 1.33103e-19)
(0.0699583 -1.84401e-05 1.46586e-19)
(0.070024 -1.84519e-05 1.76722e-20)
(0.0740482 -4.19735e-07 -8.9026e-22)
(0.0698394 -2.11977e-05 6.84909e-24)
(0.0698938 -2.11348e-05 -3.4056e-26)
(0.0698934 -2.14615e-05 8.74404e-20)
(0.0698935 -2.17944e-05 -1.18513e-21)
(0.0698935 -2.21378e-05 9.30093e-24)
(0.0699592 -2.21525e-05 -7.3665e-20)
)
;

boundaryField
{
    inlet
    {
        type            calculated;
        value           nonuniform List<vector> 0();
    }
    outlet2
    {
        type            calculated;
        value           uniform (0 0 0);
    }
    outlet1
    {
        type            calculated;
        value           uniform (0 0 0);
    }
    wall
    {
        type            calculated;
        value           uniform (0 0 0);
    }
    symmetryBottom
    {
        type            symmetry;
    }
    symmetryZ0
    {
        type            symmetry;
    }
    symmetryZ05
    {
        type            symmetry;
    }
    procBoundary0to1
    {
        type            processor;
        value           uniform (0 0 0);
    }
}


// ************************************************************************* //
