/*--------------------------------*- C++ -*----------------------------------*\
| =========                 |                                                 |
| \\      /  F ield         | OpenFOAM: The Open Source CFD Toolbox           |
|  \\    /   O peration     | Version:  2412                                  |
|   \\  /    A nd           | Website:  www.openfoam.com                      |
|    \\/     M anipulation  |                                                 |
\*---------------------------------------------------------------------------*/
FoamFile
{
    version     2.0;
    format      ascii;
    arch        "LSB;label=32;scalar=64";
    class       volScalarField;
    location    "2.4e-06";
    object      E_dof0;
}
// * * * * * * * * * * * * * * * * * * * * * * * * * * * * * * * * * * * * * //

dimensions      [0 0 0 0 0 0 0];

internalField   nonuniform List<scalar> 
84
(
99.432
64.5764
67.717
99.4377
64.5874
67.7269
99.4362
64.5863
67.7258
99.4362
64.5863
67.7258
99.4362
64.5863
67.7258
99.4362
64.5863
67.7258
99.4362
64.5863
67.7258
99.4362
64.5863
67.7258
99.4362
64.5863
67.7258
99.4362
64.5863
67.7258
99.4362
64.5863
67.7258
99.4363
64.5834
67.7234
85.7415
85.0108
85.2243
87.659
86.8758
87.0943
87.462
86.6842
86.9015
87.2655
86.493
86.535
84.9442
87.0692
86.3021
86.3411
86.5407
86.8744
86.1125
86.1486
86.3479
86.6839
85.927
85.9603
86.1592
86.4958
85.744
85.7744
85.9726
86.3265
85.5786
85.6065
85.6152
84.9765
86.0768
85.3373
85.3614
85.3665
85.5657
85.8957
85.1608
85.1822
85.185
85.4042
85.7067
84.9767
84.9953
85.1925
)
;

boundaryField
{
    inlet
    {
        type            calculated;
        value           uniform 99.4306;
    }
    outlet2
    {
        type            calculated;
        value           uniform 99.4306;
    }
    outlet1
    {
        type            calculated;
        value           nonuniform List<scalar> 0();
    }
    wall
    {
        type            calculated;
        value           uniform 99.4306;
    }
    symmetryBottom
    {
        type            symmetry;
    }
    symmetryZ0
    {
        type            symmetry;
    }
    symmetryZ05
    {
        type            symmetry;
    }
    procBoundary1to0
    {
        type            processor;
        value           uniform 99.4306;
    }
}


// ************************************************************************* //
