/*--------------------------------*- C++ -*----------------------------------*\
| =========                 |                                                 |
| \\      /  F ield         | OpenFOAM: The Open Source CFD Toolbox           |
|  \\    /   O peration     | Version:  2412                                  |
|   \\  /    A nd           | Website:  www.openfoam.com                      |
|    \\/     M anipulation  |                                                 |
\*---------------------------------------------------------------------------*/
FoamFile
{
    version     2.0;
    format      ascii;
    arch        "LSB;label=32;scalar=64";
    class       volVectorField;
    location    "2.4e-06";
    object      U;
}
// * * * * * * * * * * * * * * * * * * * * * * * * * * * * * * * * * * * * * //

dimensions      [0 0 0 0 0 0 0];

internalField   nonuniform List<vector> 
84
(
(2636.39 -0.00357883 0)
(2628.74 -0.0158836 0)
(2630.42 -0.0133195 -3.81623e-15)
(2636.39 -2.18001 0)
(2628.74 -2.4495 0)
(2630.42 -2.42085 -3.65327e-15)
(2636.39 -2.17622 0)
(2628.74 -2.44513 0)
(2630.42 -2.41654 5.4394e-15)
(2636.39 -2.17622 0)
(2628.74 -2.44513 0)
(2630.42 -2.41654 -7.06396e-15)
(2636.39 -2.17622 0)
(2628.74 -2.44513 0)
(2630.42 -2.41654 -1.18534e-14)
(2636.39 -2.17622 0)
(2628.74 -2.44513 0)
(2630.42 -2.41654 6.81957e-15)
(2636.39 -2.17622 0)
(2628.74 -2.44513 0)
(2630.42 -2.41654 -8.52528e-15)
(2636.39 -2.17622 0)
(2628.74 -2.44513 0)
(2630.42 -2.41654 -1.01485e-14)
(2636.39 -2.17622 0)
(2628.74 -2.44513 0)
(2630.42 -2.41654 3.81555e-15)
(2636.39 -2.17622 0)
(2628.74 -2.44513 0)
(2630.42 -2.41654 -8.52572e-15)
(2636.39 -2.17622 0)
(2628.74 -2.44509 0)
(2630.42 -2.41651 -2.09469e-14)
(2636.39 -2.17652 0)
(2628.74 -2.43388 0)
(2630.42 -2.40776 0)
(2633.72 2.50555 1.16661e-16)
(2633.47 2.45777 2.66623e-15)
(2633.52 2.45843 2.65748e-16)
(2634.54 -2.44795 1.09912e-16)
(2634.27 -2.48421 2.8251e-15)
(2634.32 -2.48243 -2.76219e-17)
(2634.51 -2.44849 -1.76213e-16)
(2634.23 -2.48465 -1.28765e-15)
(2634.28 -2.48195 -5.71727e-15)
(2634.47 -2.44895 2.27118e-16)
(2634.2 -2.48509 -4.84716e-17)
(2634.21 -2.52029 1.55955e-18)
(2633.91 0.0684502 4.076e-15)
(2634.44 -2.44963 -1.07264e-15)
(2634.16 -2.48576 -3.03198e-19)
(2634.18 -2.52097 -4.29474e-17)
(2634.21 -2.51925 4.14005e-15)
(2634.39 -2.33172 -2.22718e-16)
(2634.12 -2.37026 -2.84583e-15)
(2634.13 -2.40399 2.56542e-17)
(2634.17 -2.40237 2.72248e-15)
(2634.31 -1.86441 2.57206e-16)
(2634.04 -1.91123 -1.2824e-17)
(2634.05 -1.93801 -1.55807e-17)
(2634.09 -1.93673 -2.25139e-17)
(2634.26 -1.56431 3.42622e-16)
(2633.99 -1.61647 -2.69991e-15)
(2634 -1.63891 2.96499e-15)
(2634.03 -1.63715 2.52067e-17)
(2634.21 -1.4061 -1.15224e-16)
(2633.93 -1.4609 -4.14517e-15)
(2633.94 -1.48082 -4.05782e-15)
(2633.94 -1.50221 4.51365e-15)
(2633.91 0.0730962 2.75391e-14)
(2634.22 -1.40346 2.88971e-16)
(2633.96 -1.45816 -4.17497e-15)
(2633.97 -1.47776 2.8619e-15)
(2633.97 -1.49886 6.80417e-15)
(2634.01 -1.50132 4.17815e-15)
(2634.19 -1.58989 7.06784e-16)
(2633.93 -1.64112 -1.61614e-17)
(2633.94 -1.66359 5.65057e-18)
(2633.94 -1.68817 -1.87648e-18)
(2633.99 -1.73271 -4.17211e-15)
(2634.17 -1.92571 3.07755e-18)
(2633.91 -1.97018 4.02904e-15)
(2633.92 -1.99758 -1.52643e-16)
(2633.96 -1.99594 -7.14755e-15)
)
;

boundaryField
{
    inlet
    {
        type            calculated;
        value           uniform (0 0 0);
    }
    outlet2
    {
        type            calculated;
        value           uniform (0 0 0);
    }
    outlet1
    {
        type            calculated;
        value           nonuniform List<vector> 0();
    }
    wall
    {
        type            calculated;
        value           uniform (0 0 0);
    }
    symmetryBottom
    {
        type            symmetry;
    }
    symmetryZ0
    {
        type            symmetry;
    }
    symmetryZ05
    {
        type            symmetry;
    }
    procBoundary1to0
    {
        type            processor;
        value           uniform (0 0 0);
    }
}


// ************************************************************************* //
