/*--------------------------------*- C++ -*----------------------------------*\
| =========                 |                                                 |
| \\      /  F ield         | OpenFOAM: The Open Source CFD Toolbox           |
|  \\    /   O peration     | Version:  2412                                  |
|   \\  /    A nd           | Website:  www.openfoam.com                      |
|    \\/     M anipulation  |                                                 |
\*---------------------------------------------------------------------------*/
FoamFile
{
    version     2.0;
    format      ascii;
    arch        "LSB;label=32;scalar=64";
    class       volScalarField;
    location    "7e-07";
    object      E;
}
// * * * * * * * * * * * * * * * * * * * * * * * * * * * * * * * * * * * * * //

dimensions      [0 0 0 0 0 0 0];

internalField   nonuniform List<scalar> 
84
(
99.4307
88.5576
88.8194
99.4311
88.56
88.8217
99.431
88.5599
88.8216
99.431
88.5599
88.8216
99.431
88.5599
88.8216
99.431
88.5599
88.8216
99.431
88.5599
88.8216
99.431
88.5599
88.8216
99.431
88.5599
88.8216
99.431
88.5599
88.8216
99.431
88.5599
88.8216
99.4311
88.5591
88.8208
95.0519
94.9886
95.0507
95.6565
95.5955
95.6579
95.5951
95.5339
95.5962
95.5338
95.4723
95.4797
94.9777
95.4725
95.4108
95.4173
95.4801
95.4116
95.3497
95.3554
95.4182
95.3521
95.29
95.2948
95.3575
95.2931
95.2307
95.2346
95.2973
95.2405
95.1778
95.181
95.1839
94.9801
95.1606
95.0977
95.0998
95.1015
95.1649
95.1041
95.041
95.0422
95.0431
95.1079
95.0441
94.9807
94.9811
95.0437
)
;

boundaryField
{
    inlet
    {
        type            calculated;
        value           uniform 0;
    }
    outlet2
    {
        type            calculated;
        value           uniform 0;
    }
    outlet1
    {
        type            calculated;
        value           nonuniform List<scalar> 0();
    }
    wall
    {
        type            calculated;
        value           uniform 0;
    }
    symmetryBottom
    {
        type            symmetry;
    }
    symmetryZ0
    {
        type            symmetry;
    }
    symmetryZ05
    {
        type            symmetry;
    }
    procBoundary1to0
    {
        type            processor;
        value           uniform 0;
    }
}


// ************************************************************************* //
