/*--------------------------------*- C++ -*----------------------------------*\
| =========                 |                                                 |
| \\      /  F ield         | OpenFOAM: The Open Source CFD Toolbox           |
|  \\    /   O peration     | Version:  2412                                  |
|   \\  /    A nd           | Website:  www.openfoam.com                      |
|    \\/     M anipulation  |                                                 |
\*---------------------------------------------------------------------------*/
FoamFile
{
    version     2.0;
    format      ascii;
    arch        "LSB;label=32;scalar=64";
    class       volScalarField;
    location    "7.6e-06";
    object      rho_dof0;
}
// * * * * * * * * * * * * * * * * * * * * * * * * * * * * * * * * * * * * * //

dimensions      [0 0 0 0 0 0 0];

internalField   nonuniform List<scalar> 
84
(
2.81117e-05
2.67275e-06
9.52981e-06
2.81245e-05
2.68e-06
9.53778e-06
2.81213e-05
2.67915e-06
9.53618e-06
2.81213e-05
2.67915e-06
9.53618e-06
2.81213e-05
2.67915e-06
9.53618e-06
2.81213e-05
2.67915e-06
9.53618e-06
2.81213e-05
2.67915e-06
9.53618e-06
2.81213e-05
2.67915e-06
9.53618e-06
2.81213e-05
2.67915e-06
9.53618e-06
2.81213e-05
2.67915e-06
9.53618e-06
2.81213e-05
2.67913e-06
9.53617e-06
2.81214e-05
2.67729e-06
9.53546e-06
1.85374e-05
1.71555e-05
1.74147e-05
1.98878e-05
1.83188e-05
1.86035e-05
1.97428e-05
1.81937e-05
1.84739e-05
1.95986e-05
1.80695e-05
1.82231e-05
1.71039e-05
1.94551e-05
1.79458e-05
1.80956e-05
1.82287e-05
1.93115e-05
1.78222e-05
1.79682e-05
1.81006e-05
1.91684e-05
1.76991e-05
1.78412e-05
1.7973e-05
1.90286e-05
1.75788e-05
1.77172e-05
1.78472e-05
1.88795e-05
1.74506e-05
1.75849e-05
1.75822e-05
1.71842e-05
1.87571e-05
1.73446e-05
1.74759e-05
1.74717e-05
1.76083e-05
1.86129e-05
1.72204e-05
1.73478e-05
1.73424e-05
1.75286e-05
1.8479e-05
1.71047e-05
1.72287e-05
1.7357e-05
)
;

boundaryField
{
    inlet
    {
        type            calculated;
        value           uniform 2.81085e-05;
    }
    outlet2
    {
        type            calculated;
        value           uniform 2.81085e-05;
    }
    outlet1
    {
        type            calculated;
        value           nonuniform List<scalar> 0();
    }
    wall
    {
        type            calculated;
        value           uniform 2.81085e-05;
    }
    symmetryBottom
    {
        type            symmetry;
    }
    symmetryZ0
    {
        type            symmetry;
    }
    symmetryZ05
    {
        type            symmetry;
    }
    procBoundary1to0
    {
        type            processor;
        value           uniform 2.81085e-05;
    }
}


// ************************************************************************* //
