/*--------------------------------*- C++ -*----------------------------------*\
| =========                 |                                                 |
| \\      /  F ield         | OpenFOAM: The Open Source CFD Toolbox           |
|  \\    /   O peration     | Version:  2412                                  |
|   \\  /    A nd           | Website:  www.openfoam.com                      |
|    \\/     M anipulation  |                                                 |
\*---------------------------------------------------------------------------*/
FoamFile
{
    version     2.0;
    format      ascii;
    arch        "LSB;label=32;scalar=64";
    class       volVectorField;
    location    "7.6e-06";
    object      rhoU_dof0;
}
// * * * * * * * * * * * * * * * * * * * * * * * * * * * * * * * * * * * * * //

dimensions      [0 0 0 0 0 0 0];

internalField   nonuniform List<vector> 
84
(
(0.0741134 -8.43339e-07 0)
(0.00675121 -6.85709e-07 0)
(0.0250047 -6.08157e-07 -1.12436e-19)
(0.0741471 -0.000158378 0)
(0.00677006 -3.06149e-05 0)
(0.0250256 -7.06802e-05 -1.13204e-19)
(0.0741386 -0.000157573 0)
(0.00676787 -3.04224e-05 0)
(0.0250214 -7.02893e-05 1.51439e-19)
(0.0741386 -0.000157573 0)
(0.00676787 -3.04224e-05 0)
(0.0250214 -7.02892e-05 -2.1333e-19)
(0.0741386 -0.000157573 0)
(0.00676787 -3.04224e-05 0)
(0.0250214 -7.02892e-05 -3.256e-19)
(0.0741386 -0.000157573 0)
(0.00676787 -3.04224e-05 0)
(0.0250214 -7.02892e-05 2.09215e-19)
(0.0741386 -0.000157573 0)
(0.00676787 -3.04224e-05 0)
(0.0250214 -7.02892e-05 -2.4377e-19)
(0.0741386 -0.000157573 0)
(0.00676787 -3.04224e-05 0)
(0.0250214 -7.02892e-05 -2.74867e-19)
(0.0741386 -0.000157573 0)
(0.00676787 -3.04224e-05 0)
(0.0250214 -7.02892e-05 1.13157e-19)
(0.0741386 -0.000157573 0)
(0.00676787 -3.04223e-05 0)
(0.0250214 -7.02892e-05 -2.4546e-19)
(0.0741386 -0.000157573 0)
(0.00676782 -3.04169e-05 0)
(0.0250214 -7.0287e-05 -6.42749e-19)
(0.0741388 -0.000157592 0)
(0.00676302 -2.99491e-05 0)
(0.0250196 -7.01047e-05 0)
(0.0487353 0.000148785 1.95529e-20)
(0.0450649 0.000128052 1.59979e-19)
(0.0457542 0.000130866 1.71557e-20)
(0.0523395 -0.000154062 1.89071e-20)
(0.0481669 -0.000144164 1.79309e-19)
(0.0489248 -0.000146046 -5.86681e-21)
(0.0519554 -0.00015301 -2.62685e-20)
(0.0478361 -0.000143202 -8.6038e-20)
(0.0485818 -0.000144852 -2.58305e-19)
(0.0515735 -0.000151925 3.44736e-20)
(0.0475075 -0.00014225 -5.8158e-21)
(0.0479182 -0.000145439 5.04814e-22)
(0.0449557 1.38012e-05 2.11818e-19)
(0.0511935 -0.000150907 -3.32105e-20)
(0.0471805 -0.000141354 1.39628e-21)
(0.047581 -0.000144503 -2.6793e-21)
(0.0479327 -0.000145274 2.13266e-19)
(0.0508129 -0.000144678 -3.39046e-20)
(0.0468529 -0.000136052 -1.68173e-19)
(0.0472432 -0.000139069 1.65869e-20)
(0.0475932 -0.000139816 1.93462e-19)
(0.0504307 -0.000113381 3.94708e-20)
(0.0465239 -0.000108992 -5.17065e-21)
(0.0469039 -0.000111161 5.80445e-22)
(0.0472523 -0.000111773 -1.50942e-21)
(0.0500593 -9.4663e-05 4.75157e-20)
(0.0462039 -9.27395e-05 -1.73429e-19)
(0.0465741 -9.44368e-05 1.946e-19)
(0.046918 -9.48071e-05 3.23418e-21)
(0.0496621 -8.17525e-05 -1.90287e-20)
(0.0458604 -8.1539e-05 -2.16213e-19)
(0.0462202 -8.28474e-05 -2.02943e-19)
(0.0462124 -8.40671e-05 2.44885e-19)
(0.0451662 1.4489e-05 1.39621e-18)
(0.0493443 -7.83651e-05 4.12071e-20)
(0.0455908 -7.86162e-05 -2.19224e-19)
(0.0459417 -7.97686e-05 1.89448e-19)
(0.0459302 -8.08914e-05 2.99433e-19)
(0.0462919 -8.21897e-05 2.1237e-19)
(0.0489626 -9.05024e-05 1.04622e-19)
(0.0452614 -8.89941e-05 -9.19818e-21)
(0.0456021 -9.04903e-05 8.73824e-22)
(0.0455875 -9.1921e-05 -6.54666e-22)
(0.0460802 -0.000102043 -2.17975e-19)
(0.0486091 -0.000110003 1.82999e-22)
(0.044956 -0.000105681 2.16483e-19)
(0.0452877 -0.00010768 -3.02128e-20)
(0.0456269 -0.000108209 -3.04398e-19)
)
;

boundaryField
{
    inlet
    {
        type            calculated;
        value           uniform (0.0741049 0 0);
    }
    outlet2
    {
        type            calculated;
        value           uniform (0.0741049 0 0);
    }
    outlet1
    {
        type            calculated;
        value           nonuniform List<vector> 0();
    }
    wall
    {
        type            calculated;
        value           uniform (0.0741049 0 0);
    }
    symmetryBottom
    {
        type            symmetry;
    }
    symmetryZ0
    {
        type            symmetry;
    }
    symmetryZ05
    {
        type            symmetry;
    }
    procBoundary1to0
    {
        type            processor;
        value           uniform (0.0741049 0 0);
    }
}


// ************************************************************************* //
