/*--------------------------------*- C++ -*----------------------------------*\
| =========                 |                                                 |
| \\      /  F ield         | OpenFOAM: The Open Source CFD Toolbox           |
|  \\    /   O peration     | Version:  2412                                  |
|   \\  /    A nd           | Website:  www.openfoam.com                      |
|    \\/     M anipulation  |                                                 |
\*---------------------------------------------------------------------------*/
FoamFile
{
    version     2.0;
    format      ascii;
    arch        "LSB;label=32;scalar=64";
    class       volScalarField;
    location    "7.6e-06";
    object      T;
}
// * * * * * * * * * * * * * * * * * * * * * * * * * * * * * * * * * * * * * //

dimensions      [0 0 0 0 0 0 0];

internalField   nonuniform List<scalar> 
84
(
200.016
182.156
200.44
199.964
181.915
200.339
199.95
181.88
200.32
199.95
181.88
200.32
199.95
181.88
200.32
199.95
181.88
200.32
199.95
181.88
200.32
199.95
181.88
200.32
199.95
181.88
200.32
199.95
181.88
200.32
199.95
181.879
200.319
199.951
181.779
200.31
204.851
204.497
204.542
200.025
199.981
200
200.026
199.981
200.001
200.026
199.981
199.999
200.043
200.033
199.987
200.006
200.004
200.695
200.595
200.623
200.62
204.317
203.982
204.09
204.077
207.747
207.176
207.361
207.341
223.148
221.162
221.774
222.128
197.365
191.74
192.146
191.996
191.874
191.344
198.022
198.104
198.078
198.05
198.226
199.185
199.194
199.193
199.193
)
;

boundaryField
{
    inlet
    {
        type            calculated;
        value           uniform 0;
    }
    outlet2
    {
        type            calculated;
        value           uniform 0;
    }
    outlet1
    {
        type            calculated;
        value           nonuniform List<scalar> 0();
    }
    wall
    {
        type            calculated;
        value           uniform 0;
    }
    symmetryBottom
    {
        type            symmetry;
    }
    symmetryZ0
    {
        type            symmetry;
    }
    symmetryZ05
    {
        type            symmetry;
    }
    procBoundary1to0
    {
        type            processor;
        value           uniform 0;
    }
}


// ************************************************************************* //
