/*--------------------------------*- C++ -*----------------------------------*\
| =========                 |                                                 |
| \\      /  F ield         | OpenFOAM: The Open Source CFD Toolbox           |
|  \\    /   O peration     | Version:  2412                                  |
|   \\  /    A nd           | Website:  www.openfoam.com                      |
|    \\/     M anipulation  |                                                 |
\*---------------------------------------------------------------------------*/
FoamFile
{
    version     2.0;
    format      ascii;
    arch        "LSB;label=32;scalar=64";
    class       volVectorField;
    location    "7.6e-06";
    object      U;
}
// * * * * * * * * * * * * * * * * * * * * * * * * * * * * * * * * * * * * * //

dimensions      [0 0 0 0 0 0 0];

internalField   nonuniform List<vector> 
84
(
(2636.39 -0.0299995 0)
(2525.95 -0.256556 0)
(2623.84 -0.0638163 -1.17983e-14)
(2636.39 -5.63131 0)
(2526.14 -11.4235 0)
(2623.84 -7.41055 -1.1869e-14)
(2636.39 -5.60334 0)
(2526.13 -11.3553 0)
(2623.84 -7.3708 1.58804e-14)
(2636.39 -5.60334 0)
(2526.13 -11.3553 0)
(2623.84 -7.37079 -2.23706e-14)
(2636.39 -5.60334 0)
(2526.13 -11.3553 0)
(2623.84 -7.37079 -3.41437e-14)
(2636.39 -5.60334 0)
(2526.13 -11.3553 0)
(2623.84 -7.37079 2.19391e-14)
(2636.39 -5.60334 0)
(2526.13 -11.3553 0)
(2623.84 -7.37079 -2.55626e-14)
(2636.39 -5.60334 0)
(2526.13 -11.3553 0)
(2623.84 -7.37079 -2.88236e-14)
(2636.39 -5.60334 0)
(2526.13 -11.3553 0)
(2623.84 -7.37079 1.18661e-14)
(2636.39 -5.60334 0)
(2526.13 -11.3552 0)
(2623.84 -7.37079 -2.57398e-14)
(2636.39 -5.60335 0)
(2526.13 -11.3533 0)
(2623.84 -7.37056 -6.74011e-14)
(2636.39 -5.60399 0)
(2526.07 -11.1864 0)
(2623.84 -7.352 0)
(2629.02 8.02621 1.05478e-15)
(2626.85 7.46417 9.32524e-15)
(2627.33 7.51467 9.85126e-16)
(2631.74 -7.74655 9.50688e-16)
(2629.37 -7.86975 9.78827e-15)
(2629.87 -7.85044 -3.15361e-16)
(2631.62 -7.75016 -1.33054e-15)
(2629.27 -7.87098 -4.729e-15)
(2629.76 -7.84092 -1.39822e-14)
(2631.5 -7.75185 1.75899e-15)
(2629.16 -7.87242 -3.21858e-16)
(2629.53 -7.98102 2.77018e-17)
(2628.39 0.806902 1.23842e-14)
(2631.37 -7.75668 -1.70704e-15)
(2629.05 -7.87669 7.78052e-17)
(2629.42 -7.98549 -1.48064e-16)
(2629.53 -7.96953 1.16995e-14)
(2631.22 -7.49182 -1.75566e-15)
(2628.9 -7.63385 -9.43613e-15)
(2629.27 -7.73975 9.23125e-16)
(2629.38 -7.72439 1.06882e-14)
(2630.93 -5.91502 2.05917e-15)
(2628.6 -6.15805 -2.92142e-16)
(2628.97 -6.23057 3.2534e-17)
(2629.08 -6.21895 -8.39826e-17)
(2630.74 -4.97477 2.49707e-15)
(2628.39 -5.27565 -9.86584e-15)
(2628.75 -5.33024 1.09837e-14)
(2628.86 -5.31214 1.81215e-16)
(2630.48 -4.33024 -1.00791e-15)
(2628.02 -4.67256 -1.239e-14)
(2628.4 -4.71128 -1.15407e-14)
(2628.36 -4.78137 1.3928e-14)
(2628.36 0.843161 8.12496e-14)
(2630.69 -4.17789 2.19688e-15)
(2628.53 -4.53261 -1.26393e-14)
(2628.86 -4.5645 1.08406e-14)
(2628.84 -4.62986 1.71382e-14)
(2628.99 -4.66767 1.20608e-14)
(2630.58 -4.86236 5.62095e-15)
(2628.37 -5.16796 -5.34146e-16)
(2628.7 -5.21625 5.03709e-17)
(2628.68 -5.30036 -3.77495e-17)
(2628.86 -5.82149 -1.24354e-14)
(2630.5 -5.95285 9.90307e-18)
(2628.29 -6.17848 1.26563e-14)
(2628.62 -6.25005 -1.75363e-15)
(2628.74 -6.23431 -1.75375e-14)
)
;

boundaryField
{
    inlet
    {
        type            calculated;
        value           uniform (0 0 0);
    }
    outlet2
    {
        type            calculated;
        value           uniform (0 0 0);
    }
    outlet1
    {
        type            calculated;
        value           nonuniform List<vector> 0();
    }
    wall
    {
        type            calculated;
        value           uniform (0 0 0);
    }
    symmetryBottom
    {
        type            symmetry;
    }
    symmetryZ0
    {
        type            symmetry;
    }
    symmetryZ05
    {
        type            symmetry;
    }
    procBoundary1to0
    {
        type            processor;
        value           uniform (0 0 0);
    }
}


// ************************************************************************* //
