/*--------------------------------*- C++ -*----------------------------------*\
| =========                 |                                                 |
| \\      /  F ield         | OpenFOAM: The Open Source CFD Toolbox           |
|  \\    /   O peration     | Version:  2412                                  |
|   \\  /    A nd           | Website:  www.openfoam.com                      |
|    \\/     M anipulation  |                                                 |
\*---------------------------------------------------------------------------*/
FoamFile
{
    version     2.0;
    format      ascii;
    arch        "LSB;label=32;scalar=64";
    class       volScalarField;
    location    "8e-07";
    object      E_dof0;
}
// * * * * * * * * * * * * * * * * * * * * * * * * * * * * * * * * * * * * * //

dimensions      [0 0 0 0 0 0 0];

internalField   nonuniform List<scalar> 
84
(
99.4543
94.3122
94.3724
94.3722
94.3724
94.3726
94.3728
94.4519
100.197
95.0313
95.1026
95.1134
95.125
95.1369
95.1492
95.2287
100.113
94.9642
95.0283
95.0381
95.0485
95.0592
95.0703
95.1498
100.049
94.8939
94.9632
94.972
94.9816
94.9914
95.0709
99.9802
94.8198
94.888
94.8956
94.904
94.9126
94.992
99.9045
94.7463
94.8133
94.8199
94.827
94.8344
94.9138
99.8303
94.6744
94.7403
94.7457
94.7517
94.7579
94.8372
99.7521
94.6063
94.6678
94.6721
94.677
94.682
94.7612
99.6914
94.543
94.6069
94.6103
94.6143
94.6935
99.5949
94.4453
94.5077
94.5096
94.5119
94.5911
99.5217
94.3761
94.4373
94.4381
94.4393
94.5185
99.3706
94.3049
94.3626
94.3622
94.3622
94.3623
94.4414
)
;

boundaryField
{
    inlet
    {
        type            calculated;
        value           nonuniform List<scalar> 0();
    }
    outlet2
    {
        type            calculated;
        value           uniform 99.4306;
    }
    outlet1
    {
        type            calculated;
        value           uniform 99.4306;
    }
    wall
    {
        type            calculated;
        value           uniform 99.4306;
    }
    symmetryBottom
    {
        type            symmetry;
    }
    symmetryZ0
    {
        type            symmetry;
    }
    symmetryZ05
    {
        type            symmetry;
    }
    procBoundary0to1
    {
        type            processor;
        value           uniform 99.4306;
    }
}


// ************************************************************************* //
