/*--------------------------------*- C++ -*----------------------------------*\
| =========                 |                                                 |
| \\      /  F ield         | OpenFOAM: The Open Source CFD Toolbox           |
|  \\    /   O peration     | Version:  2412                                  |
|   \\  /    A nd           | Website:  www.openfoam.com                      |
|    \\/     M anipulation  |                                                 |
\*---------------------------------------------------------------------------*/
FoamFile
{
    version     2.0;
    format      ascii;
    arch        "LSB;label=32;scalar=64";
    class       volScalarField;
    location    "8e-07";
    object      rho;
}
// * * * * * * * * * * * * * * * * * * * * * * * * * * * * * * * * * * * * * //

dimensions      [0 0 0 0 0 0 0];

internalField   nonuniform List<scalar> 
84
(
2.81173e-05
2.66802e-05
2.66968e-05
2.66968e-05
2.66969e-05
2.6697e-05
2.66971e-05
2.67192e-05
2.83228e-05
2.68792e-05
2.68989e-05
2.6902e-05
2.69052e-05
2.69085e-05
2.6912e-05
2.69342e-05
2.82994e-05
2.68604e-05
2.68782e-05
2.68809e-05
2.68838e-05
2.68868e-05
2.68899e-05
2.69121e-05
2.82815e-05
2.68408e-05
2.686e-05
2.68625e-05
2.68651e-05
2.68679e-05
2.68901e-05
2.82623e-05
2.68201e-05
2.6839e-05
2.68411e-05
2.68434e-05
2.68458e-05
2.6868e-05
2.82409e-05
2.67994e-05
2.68179e-05
2.68198e-05
2.68218e-05
2.68238e-05
2.6846e-05
2.82196e-05
2.67788e-05
2.6797e-05
2.67985e-05
2.68001e-05
2.68018e-05
2.6824e-05
2.81971e-05
2.67591e-05
2.6776e-05
2.67772e-05
2.67785e-05
2.67799e-05
2.68021e-05
2.81771e-05
2.67384e-05
2.6756e-05
2.67568e-05
2.67579e-05
2.678e-05
2.81569e-05
2.67177e-05
2.67349e-05
2.67355e-05
2.67362e-05
2.67583e-05
2.81348e-05
2.66967e-05
2.67136e-05
2.67138e-05
2.67142e-05
2.67363e-05
2.80919e-05
2.66764e-05
2.66923e-05
2.66922e-05
2.66922e-05
2.66923e-05
2.67144e-05
)
;

boundaryField
{
    inlet
    {
        type            calculated;
        value           nonuniform List<scalar> 0();
    }
    outlet2
    {
        type            calculated;
        value           uniform 0;
    }
    outlet1
    {
        type            calculated;
        value           uniform 0;
    }
    wall
    {
        type            calculated;
        value           uniform 0;
    }
    symmetryBottom
    {
        type            symmetry;
    }
    symmetryZ0
    {
        type            symmetry;
    }
    symmetryZ05
    {
        type            symmetry;
    }
    procBoundary0to1
    {
        type            processor;
        value           uniform 0;
    }
}


// ************************************************************************* //
