/*--------------------------------*- C++ -*----------------------------------*\
| =========                 |                                                 |
| \\      /  F ield         | OpenFOAM: The Open Source CFD Toolbox           |
|  \\    /   O peration     | Version:  2412                                  |
|   \\  /    A nd           | Website:  www.openfoam.com                      |
|    \\/     M anipulation  |                                                 |
\*---------------------------------------------------------------------------*/
FoamFile
{
    version     2.0;
    format      ascii;
    arch        "LSB;label=32;scalar=64";
    class       volVectorField;
    location    "8e-07";
    object      rhoU_dof0;
}
// * * * * * * * * * * * * * * * * * * * * * * * * * * * * * * * * * * * * * //

dimensions      [0 0 0 0 0 0 0];

internalField   nonuniform List<vector> 
84
(
(0.0741237 2.38716e-05 2.60803e-20)
(0.0703127 2.30711e-05 -2.59246e-20)
(0.0703571 2.34248e-05 -6.19228e-20)
(0.070357 2.37767e-05 2.92711e-20)
(0.0703571 2.41394e-05 2.86757e-22)
(0.0703573 2.45134e-05 3.30896e-21)
(0.0703575 2.48991e-05 5.72588e-20)
(0.0704161 2.49139e-05 1.15818e-20)
(0.074673 -2.38904e-05 2.29176e-20)
(0.0708448 -2.32335e-05 -2.32099e-20)
(0.0708973 -2.35898e-05 -7.61431e-20)
(0.0709053 -2.39475e-05 1.67065e-21)
(0.0709139 -2.43163e-05 -1.27933e-19)
(0.0709227 -2.46966e-05 1.38481e-20)
(0.0709319 -2.50891e-05 1.07159e-19)
(0.0709908 -2.51015e-05 2.83906e-20)
(0.0746109 -2.35626e-05 -1.13194e-19)
(0.070795 -2.34264e-05 1.73984e-20)
(0.0708423 -2.35736e-05 3.82705e-20)
(0.0708495 -2.39332e-05 -8.49144e-22)
(0.0708572 -2.43015e-05 -5.40676e-22)
(0.0708652 -2.46814e-05 5.2863e-20)
(0.0708734 -2.50733e-05 -3.95351e-20)
(0.0709323 -2.50858e-05 -5.40197e-20)
(0.0745634 -2.39524e-05 -1.15924e-19)
(0.0707429 -2.35543e-05 5.20491e-20)
(0.070794 -2.39189e-05 -9.99e-22)
(0.0708006 -2.42867e-05 -1.20593e-19)
(0.0708076 -2.46661e-05 1.07612e-19)
(0.0708149 -2.50576e-05 2.6919e-20)
(0.0708738 -2.507e-05 -4.01713e-20)
(0.0745124 -2.42013e-05 -6.45543e-20)
(0.070688 -2.35384e-05 -2.56597e-20)
(0.0707382 -2.39044e-05 2.99137e-22)
(0.0707439 -2.42718e-05 6.98883e-23)
(0.0707501 -2.46507e-05 -3.70014e-20)
(0.0707565 -2.50417e-05 3.10714e-20)
(0.0708154 -2.50542e-05 8.1014e-20)
(0.0744558 -2.29617e-05 -4.03027e-20)
(0.070633 -2.23227e-05 6.35939e-20)
(0.0706824 -2.26704e-05 -7.33607e-22)
(0.0706873 -2.30193e-05 7.91669e-20)
(0.0706925 -2.33792e-05 -6.68639e-20)
(0.070698 -2.37505e-05 5.62178e-20)
(0.0707568 -2.37624e-05 -1.25304e-19)
(0.0743989 -1.85203e-05 -2.26129e-24)
(0.0705779 -1.79898e-05 6.28845e-20)
(0.0706264 -1.82701e-05 -7.18683e-22)
(0.0706304 -1.85511e-05 -1.98797e-22)
(0.0706348 -1.88409e-05 6.76605e-20)
(0.0706393 -1.914e-05 1.06688e-20)
(0.0706981 -1.91499e-05 7.09572e-20)
(0.074339 -1.53599e-05 -2.36531e-23)
(0.0705255 -1.53176e-05 1.03691e-23)
(0.0705707 -1.53896e-05 -2.0071e-22)
(0.0705739 -1.56283e-05 -1.23435e-22)
(0.0705774 -1.58726e-05 3.06504e-23)
(0.070581 -1.61247e-05 -2.61929e-23)
(0.0706398 -1.61333e-05 -5.17532e-20)
(0.074286 -1.42678e-05 1.31807e-19)
(0.0704706 -1.39801e-05 -1.513e-21)
(0.0705175 -1.42005e-05 -1.28573e-19)
(0.0705199 -1.4422e-05 -5.42387e-20)
(0.0705226 -1.46506e-05 6.48196e-20)
(0.0705813 -1.46586e-05 -3.6353e-23)
(0.0742327 -1.45047e-05 -5.03957e-20)
(0.070416 -1.40536e-05 6.07413e-22)
(0.0704621 -1.42751e-05 -6.36591e-20)
(0.0704635 -1.44965e-05 6.391e-20)
(0.0704654 -1.47249e-05 1.21683e-19)
(0.0705241 -1.47332e-05 4.54661e-24)
(0.0741741 -1.61338e-05 -6.48212e-20)
(0.0703605 -1.57477e-05 7.50253e-22)
(0.0704057 -1.59949e-05 2.34965e-23)
(0.0704063 -1.62433e-05 1.1898e-19)
(0.0704072 -1.64995e-05 1.31182e-19)
(0.0704659 -1.65087e-05 1.62004e-20)
(0.0740607 -3.28092e-07 -6.93169e-22)
(0.0703069 -1.89286e-05 4.59692e-24)
(0.0703494 -1.89144e-05 -1.90856e-26)
(0.0703491 -1.9206e-05 7.76876e-20)
(0.0703492 -1.9504e-05 -9.30221e-22)
(0.0703492 -1.98114e-05 6.27702e-24)
(0.0704078 -1.9823e-05 -6.48235e-20)
)
;

boundaryField
{
    inlet
    {
        type            calculated;
        value           nonuniform List<vector> 0();
    }
    outlet2
    {
        type            calculated;
        value           uniform (0.0741049 0 0);
    }
    outlet1
    {
        type            calculated;
        value           uniform (0.0741049 0 0);
    }
    wall
    {
        type            calculated;
        value           uniform (0.0741049 0 0);
    }
    symmetryBottom
    {
        type            symmetry;
    }
    symmetryZ0
    {
        type            symmetry;
    }
    symmetryZ05
    {
        type            symmetry;
    }
    procBoundary0to1
    {
        type            processor;
        value           uniform (0.0741049 0 0);
    }
}


// ************************************************************************* //
