/*--------------------------------*- C++ -*----------------------------------*\
| =========                 |                                                 |
| \\      /  F ield         | OpenFOAM: The Open Source CFD Toolbox           |
|  \\    /   O peration     | Version:  2412                                  |
|   \\  /    A nd           | Website:  www.openfoam.com                      |
|    \\/     M anipulation  |                                                 |
\*---------------------------------------------------------------------------*/
FoamFile
{
    version     2.0;
    format      ascii;
    arch        "LSB;label=32;scalar=64";
    class       volScalarField;
    location    "7.3e-06";
    object      rho;
}
// * * * * * * * * * * * * * * * * * * * * * * * * * * * * * * * * * * * * * //

dimensions      [0 0 0 0 0 0 0];

internalField   nonuniform List<scalar> 
84
(
2.71347e-05
1.64359e-05
1.77051e-05
1.76073e-05
1.76147e-05
1.76161e-05
1.76179e-05
1.77661e-05
2.89559e-05
1.75674e-05
1.89365e-05
1.88513e-05
1.88785e-05
1.88999e-05
1.89224e-05
1.90788e-05
2.85791e-05
1.76265e-05
1.87772e-05
1.87196e-05
1.87422e-05
1.87615e-05
1.87816e-05
1.89372e-05
2.84437e-05
1.73486e-05
1.86884e-05
1.8601e-05
1.86243e-05
1.86418e-05
1.87966e-05
2.83995e-05
1.72144e-05
1.8556e-05
1.84665e-05
1.84876e-05
1.85028e-05
1.86567e-05
2.82035e-05
1.70924e-05
1.8423e-05
1.8332e-05
1.83508e-05
1.83638e-05
1.85168e-05
2.80064e-05
1.69721e-05
1.82903e-05
1.8198e-05
1.82146e-05
1.82253e-05
1.83774e-05
2.77192e-05
1.69541e-05
1.81461e-05
1.80686e-05
1.80816e-05
1.80902e-05
1.82415e-05
2.75393e-05
1.67387e-05
1.80284e-05
1.79336e-05
1.79458e-05
1.8096e-05
2.74527e-05
1.66253e-05
1.79139e-05
1.78177e-05
1.78283e-05
1.79777e-05
2.72066e-05
1.65084e-05
1.77774e-05
1.76803e-05
1.76885e-05
1.7837e-05
2.68466e-05
1.64413e-05
1.76445e-05
1.75533e-05
1.75588e-05
1.7559e-05
1.7707e-05
)
;

boundaryField
{
    inlet
    {
        type            calculated;
        value           nonuniform List<scalar> 0();
    }
    outlet2
    {
        type            calculated;
        value           uniform 0;
    }
    outlet1
    {
        type            calculated;
        value           uniform 0;
    }
    wall
    {
        type            calculated;
        value           uniform 0;
    }
    symmetryBottom
    {
        type            symmetry;
    }
    symmetryZ0
    {
        type            symmetry;
    }
    symmetryZ05
    {
        type            symmetry;
    }
    procBoundary0to1
    {
        type            processor;
        value           uniform 0;
    }
}


// ************************************************************************* //
