/*--------------------------------*- C++ -*----------------------------------*\
| =========                 |                                                 |
| \\      /  F ield         | OpenFOAM: The Open Source CFD Toolbox           |
|  \\    /   O peration     | Version:  2412                                  |
|   \\  /    A nd           | Website:  www.openfoam.com                      |
|    \\/     M anipulation  |                                                 |
\*---------------------------------------------------------------------------*/
FoamFile
{
    version     2.0;
    format      ascii;
    arch        "LSB;label=32;scalar=64";
    class       volVectorField;
    location    "7.3e-06";
    object      U;
}
// * * * * * * * * * * * * * * * * * * * * * * * * * * * * * * * * * * * * * //

dimensions      [0 0 0 0 0 0 0];

internalField   nonuniform List<vector> 
84
(
(2633.84 7.41294 7.59663e-15)
(2624.99 7.5524 -1.1867e-14)
(2627.71 7.65053 -1.75373e-14)
(2627.4 7.76089 1.19355e-14)
(2627.4 7.8736 -2.01898e-15)
(2627.38 7.98967 1.57905e-15)
(2627.35 8.1092 1.6868e-14)
(2627.51 8.09392 1.64382e-15)
(2636.26 -7.66292 7.14667e-15)
(2627.59 -7.94769 -1.10296e-14)
(2630.3 -7.99671 -2.18354e-14)
(2630.03 -8.12523 3.23289e-15)
(2630.07 -8.24869 -4.07465e-14)
(2630.09 -8.37669 1.10889e-14)
(2630.11 -8.50868 3.35156e-14)
(2630.25 -8.49026 5.85661e-15)
(2635.99 -6.84384 -2.81558e-14)
(2627.87 -9.18734 9.62533e-15)
(2630.11 -7.82789 1.1662e-14)
(2629.93 -8.14128 -1.81142e-15)
(2629.95 -8.24944 -6.64228e-16)
(2629.97 -8.3784 1.58922e-14)
(2629.99 -8.51041 -1.36543e-14)
(2630.13 -8.49198 -1.48979e-14)
(2635.92 -7.15772 -2.68498e-14)
(2627.41 -8.12416 2.07121e-14)
(2630.08 -8.1198 -2.54503e-15)
(2629.82 -8.25251 -3.68848e-14)
(2629.85 -8.38008 3.76487e-14)
(2629.87 -8.5122 5.62342e-15)
(2630.01 -8.49376 -1.37502e-14)
(2635.96 -7.79893 -1.5955e-14)
(2627.26 -8.04577 -6.49035e-15)
(2629.97 -8.12895 8.69432e-16)
(2629.7 -8.25712 2.63516e-16)
(2629.74 -8.38504 -1.25654e-14)
(2629.75 -8.51731 1.15175e-14)
(2629.89 -8.49884 2.34991e-14)
(2635.83 -7.57145 -1.0589e-14)
(2627.1 -7.79498 2.194e-14)
(2629.82 -7.88357 -2.70333e-15)
(2629.55 -8.01066 2.42814e-14)
(2629.58 -8.13818 -2.28258e-14)
(2629.59 -8.2701 1.90609e-14)
(2629.74 -8.25209 -3.96631e-14)
(2635.59 -6.08835 -4.41693e-18)
(2626.79 -6.28939 2.00111e-14)
(2629.52 -6.34483 -2.57215e-15)
(2629.24 -6.44914 1.37314e-16)
(2629.27 -6.55139 2.00177e-14)
(2629.27 -6.65737 1.89809e-15)
(2629.42 -6.64296 1.95778e-14)
(2635.36 -4.45736 3.10278e-16)
(2626.74 -6.42976 3.99458e-16)
(2629.28 -5.28537 -1.35257e-16)
(2629.03 -5.53301 -3.49201e-16)
(2629.05 -5.60904 -6.53967e-17)
(2629.05 -5.70223 1.72802e-16)
(2629.2 -5.68963 -1.54516e-14)
(2635.12 -4.28914 3.97083e-14)
(2626.17 -4.86504 -7.46242e-15)
(2628.96 -4.871 -4.19212e-14)
(2628.66 -4.95182 -1.17095e-14)
(2628.68 -5.03057 2.36469e-14)
(2628.83 -5.01991 -3.55015e-15)
(2635.31 -4.54311 -1.3896e-14)
(2626.74 -4.66069 2.67847e-15)
(2629.41 -4.7143 -1.94046e-14)
(2629.13 -4.78615 2.21212e-14)
(2629.16 -4.85853 3.64163e-14)
(2629.3 -4.8488 -4.68263e-15)
(2635.24 -4.76634 -1.7231e-14)
(2626.56 -5.43589 3.61456e-15)
(2629.25 -5.38233 -2.02833e-16)
(2628.96 -5.47578 3.80524e-14)
(2628.99 -5.56023 3.78467e-14)
(2629.14 -5.5488 9.51105e-16)
(2635.11 -0.832324 -1.5993e-15)
(2626.51 -7.63583 2.23015e-16)
(2629.16 -6.23788 -1.25009e-17)
(2628.88 -6.46894 2.35392e-14)
(2628.9 -6.55814 -3.17603e-15)
(2628.9 -6.66032 2.65424e-16)
(2629.05 -6.64682 -1.91072e-14)
)
;

boundaryField
{
    inlet
    {
        type            calculated;
        value           nonuniform List<vector> 0();
    }
    outlet2
    {
        type            calculated;
        value           uniform (0 0 0);
    }
    outlet1
    {
        type            calculated;
        value           uniform (0 0 0);
    }
    wall
    {
        type            calculated;
        value           uniform (0 0 0);
    }
    symmetryBottom
    {
        type            symmetry;
    }
    symmetryZ0
    {
        type            symmetry;
    }
    symmetryZ05
    {
        type            symmetry;
    }
    procBoundary0to1
    {
        type            processor;
        value           uniform (0 0 0);
    }
}


// ************************************************************************* //
