/*--------------------------------*- C++ -*----------------------------------*\
| =========                 |                                                 |
| \\      /  F ield         | OpenFOAM: The Open Source CFD Toolbox           |
|  \\    /   O peration     | Version:  2412                                  |
|   \\  /    A nd           | Website:  www.openfoam.com                      |
|    \\/     M anipulation  |                                                 |
\*---------------------------------------------------------------------------*/
FoamFile
{
    version     2.0;
    format      ascii;
    arch        "LSB;label=32;scalar=64";
    class       volScalarField;
    location    "2.3e-06";
    object      rho_dof0;
}
// * * * * * * * * * * * * * * * * * * * * * * * * * * * * * * * * * * * * * //

dimensions      [0 0 0 0 0 0 0];

internalField   nonuniform List<scalar> 
84
(
2.81089e-05
1.87299e-05
1.95304e-05
2.81103e-05
1.87329e-05
1.95331e-05
2.811e-05
1.87326e-05
1.95328e-05
2.811e-05
1.87326e-05
1.95328e-05
2.811e-05
1.87326e-05
1.95328e-05
2.811e-05
1.87326e-05
1.95328e-05
2.811e-05
1.87326e-05
1.95328e-05
2.811e-05
1.87326e-05
1.95328e-05
2.811e-05
1.87326e-05
1.95328e-05
2.811e-05
1.87326e-05
1.95328e-05
2.811e-05
1.87326e-05
1.95328e-05
2.811e-05
1.87319e-05
1.95321e-05
2.4424e-05
2.42372e-05
2.42942e-05
2.49353e-05
2.47356e-05
2.47938e-05
2.48823e-05
2.46839e-05
2.47418e-05
2.48294e-05
2.46323e-05
2.46431e-05
2.42146e-05
2.47766e-05
2.45808e-05
2.45908e-05
2.46445e-05
2.47238e-05
2.45294e-05
2.45385e-05
2.45922e-05
2.46711e-05
2.4478e-05
2.44864e-05
2.454e-05
2.46188e-05
2.4427e-05
2.44346e-05
2.4488e-05
2.45656e-05
2.43751e-05
2.43819e-05
2.43841e-05
2.42236e-05
2.4515e-05
2.43258e-05
2.43319e-05
2.43334e-05
2.43871e-05
2.44623e-05
2.42744e-05
2.42796e-05
2.42804e-05
2.43392e-05
2.44104e-05
2.42237e-05
2.42282e-05
2.42814e-05
)
;

boundaryField
{
    inlet
    {
        type            calculated;
        value           uniform 2.81085e-05;
    }
    outlet2
    {
        type            calculated;
        value           uniform 2.81085e-05;
    }
    outlet1
    {
        type            calculated;
        value           nonuniform List<scalar> 0();
    }
    wall
    {
        type            calculated;
        value           uniform 2.81085e-05;
    }
    symmetryBottom
    {
        type            symmetry;
    }
    symmetryZ0
    {
        type            symmetry;
    }
    symmetryZ05
    {
        type            symmetry;
    }
    procBoundary1to0
    {
        type            processor;
        value           uniform 2.81085e-05;
    }
}


// ************************************************************************* //
