/*--------------------------------*- C++ -*----------------------------------*\
| =========                 |                                                 |
| \\      /  F ield         | OpenFOAM: The Open Source CFD Toolbox           |
|  \\    /   O peration     | Version:  2412                                  |
|   \\  /    A nd           | Website:  www.openfoam.com                      |
|    \\/     M anipulation  |                                                 |
\*---------------------------------------------------------------------------*/
FoamFile
{
    version     2.0;
    format      ascii;
    arch        "LSB;label=32;scalar=64";
    class       volVectorField;
    location    "2.3e-06";
    object      rhoU_dof0;
}
// * * * * * * * * * * * * * * * * * * * * * * * * * * * * * * * * * * * * * //

dimensions      [0 0 0 0 0 0 0];

internalField   nonuniform List<vector> 
84
(
(0.0741058 -9.23331e-08 0)
(0.0492438 -2.78506e-07 0)
(0.0513778 -2.45647e-07 -7.18193e-20)
(0.0741097 -5.89671e-05 0)
(0.0492516 -4.39432e-05 0)
(0.0513849 -4.53307e-05 -6.86961e-20)
(0.0741087 -5.88679e-05 0)
(0.0492509 -4.38675e-05 0)
(0.0513841 -4.52528e-05 1.03044e-19)
(0.0741087 -5.88679e-05 0)
(0.0492509 -4.38675e-05 0)
(0.0513841 -4.52528e-05 -1.32723e-19)
(0.0741087 -5.88679e-05 0)
(0.0492509 -4.38675e-05 0)
(0.0513841 -4.52528e-05 -2.23269e-19)
(0.0741087 -5.88679e-05 0)
(0.0492509 -4.38675e-05 0)
(0.0513841 -4.52528e-05 1.28025e-19)
(0.0741087 -5.88679e-05 0)
(0.0492509 -4.38675e-05 0)
(0.0513841 -4.52528e-05 -1.59265e-19)
(0.0741087 -5.88679e-05 0)
(0.0492509 -4.38675e-05 0)
(0.0513841 -4.52528e-05 -1.88921e-19)
(0.0741087 -5.88679e-05 0)
(0.0492509 -4.38675e-05 0)
(0.0513841 -4.52528e-05 7.02548e-20)
(0.0741087 -5.88679e-05 0)
(0.0492509 -4.38675e-05 0)
(0.0513841 -4.52528e-05 -1.59273e-19)
(0.0741087 -5.88679e-05 0)
(0.0492508 -4.38669e-05 0)
(0.0513841 -4.52522e-05 -3.919e-19)
(0.0741088 -5.88762e-05 0)
(0.0492488 -4.36666e-05 0)
(0.0513825 -4.50869e-05 0)
(0.0643287 5.86123e-05 2.60722e-21)
(0.0638309 5.7128e-05 6.17936e-20)
(0.063982 5.72749e-05 6.16839e-21)
(0.0656947 -5.84984e-05 2.51203e-21)
(0.0651624 -5.88876e-05 6.70805e-20)
(0.0653169 -5.89857e-05 -6.22328e-22)
(0.0655543 -5.83869e-05 -4.04022e-21)
(0.0650254 -5.8775e-05 -3.03938e-20)
(0.0651791 -5.88516e-05 -1.35382e-19)
(0.0654141 -5.82736e-05 5.20203e-21)
(0.0648887 -5.86627e-05 -1.13123e-21)
(0.0649174 -5.95197e-05 3.49754e-23)
(0.0637818 1.51138e-06 9.40845e-20)
(0.0652741 -5.81655e-05 -2.59512e-20)
(0.0647522 -5.85553e-05 -3.0256e-23)
(0.0647788 -5.94091e-05 -1.01046e-21)
(0.0649213 -5.94996e-05 9.60879e-20)
(0.0651339 -5.52342e-05 -5.07662e-21)
(0.0646156 -5.57009e-05 -6.56771e-20)
(0.06464 -5.65147e-05 4.94459e-22)
(0.0647823 -5.66015e-05 6.38912e-20)
(0.0649933 -4.40851e-05 5.82927e-21)
(0.0644785 -4.48198e-05 -2.79997e-22)
(0.0645008 -4.54644e-05 -3.73903e-22)
(0.0646428 -4.55349e-05 -5.27785e-22)
(0.0648542 -3.69137e-05 7.7821e-21)
(0.0643428 -3.78204e-05 -6.31006e-20)
(0.0643631 -3.83586e-05 6.93526e-20)
(0.0645046 -3.84028e-05 5.79359e-22)
(0.064713 -3.31294e-05 -2.59829e-21)
(0.064205 -3.41213e-05 -9.68043e-20)
(0.0642231 -3.45979e-05 -9.49653e-20)
(0.0642289 -3.51009e-05 1.05331e-19)
(0.0638052 1.61585e-06 6.41387e-19)
(0.0645799 -3.30175e-05 6.53391e-21)
(0.0640758 -3.40063e-05 -9.72805e-20)
(0.0640919 -3.4474e-05 6.64345e-20)
(0.0640958 -3.49686e-05 1.58522e-19)
(0.0642383 -3.51001e-05 9.85598e-20)
(0.0644404 -3.73034e-05 1.59553e-20)
(0.0639396 -3.81829e-05 -3.43073e-22)
(0.0639537 -3.87157e-05 1.30519e-22)
(0.0639557 -3.92882e-05 -3.91076e-23)
(0.0641116 -4.03719e-05 -9.68776e-20)
(0.0643032 -4.5074e-05 7.19497e-23)
(0.0638058 -4.57462e-05 9.33406e-20)
(0.0638178 -4.63922e-05 -3.38345e-21)
(0.0639587 -4.64573e-05 -1.65816e-19)
)
;

boundaryField
{
    inlet
    {
        type            calculated;
        value           uniform (0.0741049 0 0);
    }
    outlet2
    {
        type            calculated;
        value           uniform (0.0741049 0 0);
    }
    outlet1
    {
        type            calculated;
        value           nonuniform List<vector> 0();
    }
    wall
    {
        type            calculated;
        value           uniform (0.0741049 0 0);
    }
    symmetryBottom
    {
        type            symmetry;
    }
    symmetryZ0
    {
        type            symmetry;
    }
    symmetryZ05
    {
        type            symmetry;
    }
    procBoundary1to0
    {
        type            processor;
        value           uniform (0.0741049 0 0);
    }
}


// ************************************************************************* //
