/*--------------------------------*- C++ -*----------------------------------*\
| =========                 |                                                 |
| \\      /  F ield         | OpenFOAM: The Open Source CFD Toolbox           |
|  \\    /   O peration     | Version:  2412                                  |
|   \\  /    A nd           | Website:  www.openfoam.com                      |
|    \\/     M anipulation  |                                                 |
\*---------------------------------------------------------------------------*/
FoamFile
{
    version     2.0;
    format      ascii;
    arch        "LSB;label=32;scalar=64";
    class       volVectorField;
    location    "2.6e-06";
    object      rhoU;
}
// * * * * * * * * * * * * * * * * * * * * * * * * * * * * * * * * * * * * * //

dimensions      [0 0 0 0 0 0 0];

internalField   nonuniform List<vector> 
84
(
(0.0741061 -1.18039e-07 0)
(0.0463266 -3.17639e-07 0)
(0.0490247 -2.76693e-07 -7.80649e-20)
(0.074111 -6.58513e-05 0)
(0.0463356 -4.68641e-05 0)
(0.0490329 -4.88637e-05 -7.65027e-20)
(0.0741098 -6.57265e-05 0)
(0.0463347 -4.67724e-05 0)
(0.0490319 -4.87685e-05 1.0929e-19)
(0.0741098 -6.57265e-05 0)
(0.0463347 -4.67724e-05 0)
(0.0490319 -4.87685e-05 -1.42096e-19)
(0.0741098 -6.57265e-05 0)
(0.0463347 -4.67724e-05 0)
(0.0490319 -4.87685e-05 -2.40445e-19)
(0.0741098 -6.57265e-05 0)
(0.0463347 -4.67724e-05 0)
(0.0490319 -4.87685e-05 1.37393e-19)
(0.0741098 -6.57265e-05 0)
(0.0463347 -4.67724e-05 0)
(0.0490319 -4.87685e-05 -1.73322e-19)
(0.0741098 -6.57265e-05 0)
(0.0463347 -4.67724e-05 0)
(0.0490319 -4.87685e-05 -2.07659e-19)
(0.0741098 -6.57265e-05 0)
(0.0463347 -4.67724e-05 0)
(0.0490319 -4.87685e-05 7.96217e-20)
(0.0741098 -6.57265e-05 0)
(0.0463347 -4.67724e-05 0)
(0.0490319 -4.87685e-05 -1.73332e-19)
(0.0741098 -6.57265e-05 0)
(0.0463347 -4.67716e-05 0)
(0.0490319 -4.87678e-05 -4.24694e-19)
(0.0741099 -6.57357e-05 0)
(0.0463324 -4.6549e-05 0)
(0.0490301 -4.85895e-05 0)
(0.0632239 6.52359e-05 3.30257e-21)
(0.062599 6.32063e-05 6.90094e-20)
(0.0627713 6.34027e-05 6.90446e-21)
(0.0647475 -6.51751e-05 3.17636e-21)
(0.0640753 -6.54661e-05 7.42921e-20)
(0.0642522 -6.55949e-05 -8.07273e-22)
(0.0645906 -6.5033e-05 -5.02557e-21)
(0.0639232 -6.53231e-05 -3.40137e-20)
(0.0640989 -6.54241e-05 -1.51267e-19)
(0.0644339 -6.48884e-05 6.45501e-21)
(0.0637713 -6.51806e-05 -1.30169e-21)
(0.0638075 -6.61403e-05 4.51663e-23)
(0.0625413 1.9325e-06 1.06008e-19)
(0.0642775 -6.47509e-05 -2.73642e-20)
(0.0636198 -6.50447e-05 4.07981e-23)
(0.0636535 -6.60004e-05 -1.12809e-21)
(0.0638123 -6.61155e-05 1.09526e-19)
(0.0641209 -6.15153e-05 -6.30653e-21)
(0.063468 -6.19136e-05 -7.41782e-20)
(0.0634993 -6.2825e-05 9.20696e-22)
(0.0636579 -6.29354e-05 7.19137e-20)
(0.0639638 -4.90359e-05 7.31922e-21)
(0.0633157 -4.98042e-05 -3.8224e-22)
(0.0633446 -5.05229e-05 -3.87335e-22)
(0.063503 -5.06125e-05 -5.91802e-22)
(0.0638085 -4.1038e-05 9.65902e-21)
(0.0631652 -4.20425e-05 -7.04309e-20)
(0.0631918 -4.26408e-05 7.86415e-20)
(0.0633494 -4.26968e-05 6.84597e-22)
(0.0636505 -3.67505e-05 -3.27666e-21)
(0.0630117 -3.78748e-05 -1.07599e-19)
(0.0630359 -3.84016e-05 -1.04986e-19)
(0.0630422 -3.89605e-05 1.18832e-19)
(0.0625711 2.06167e-06 7.05594e-19)
(0.0635028 -3.65554e-05 8.10693e-21)
(0.0628693 -3.76785e-05 -1.08178e-19)
(0.0628913 -3.81934e-05 7.34163e-20)
(0.0628955 -3.87409e-05 1.76478e-19)
(0.0630542 -3.89086e-05 1.0668e-19)
(0.0633469 -4.13527e-05 1.97578e-20)
(0.062718 -4.2325e-05 -4.94489e-22)
(0.0627376 -4.2914e-05 1.48206e-22)
(0.0627398 -4.35512e-05 -5.86598e-23)
(0.0629156 -4.49376e-05 -1.08987e-19)
(0.0631941 -4.99955e-05 8.00834e-23)
(0.0625698 -5.06854e-05 1.04189e-19)
(0.0625871 -5.14019e-05 -4.28926e-21)
(0.0627439 -5.14842e-05 -1.85729e-19)
)
;

boundaryField
{
    inlet
    {
        type            calculated;
        value           uniform (0 0 0);
    }
    outlet2
    {
        type            calculated;
        value           uniform (0 0 0);
    }
    outlet1
    {
        type            calculated;
        value           nonuniform List<vector> 0();
    }
    wall
    {
        type            calculated;
        value           uniform (0 0 0);
    }
    symmetryBottom
    {
        type            symmetry;
    }
    symmetryZ0
    {
        type            symmetry;
    }
    symmetryZ05
    {
        type            symmetry;
    }
    procBoundary1to0
    {
        type            processor;
        value           uniform (0 0 0);
    }
}


// ************************************************************************* //
