/*--------------------------------*- C++ -*----------------------------------*\
| =========                 |                                                 |
| \\      /  F ield         | OpenFOAM: The Open Source CFD Toolbox           |
|  \\    /   O peration     | Version:  2412                                  |
|   \\  /    A nd           | Website:  www.openfoam.com                      |
|    \\/     M anipulation  |                                                 |
\*---------------------------------------------------------------------------*/
FoamFile
{
    version     2.0;
    format      ascii;
    arch        "LSB;label=32;scalar=64";
    class       volScalarField;
    location    "4.6e-06";
    object      E;
}
// * * * * * * * * * * * * * * * * * * * * * * * * * * * * * * * * * * * * * //

dimensions      [0 0 0 0 0 0 0];

internalField   nonuniform List<scalar> 
84
(
99.4354
38.0477
48.5329
99.4546
38.0689
48.552
99.4497
38.0662
48.5489
99.4497
38.0662
48.5489
99.4497
38.0662
48.5489
99.4497
38.0662
48.5489
99.4497
38.0662
48.5489
99.4497
38.0662
48.5489
99.4497
38.0662
48.5489
99.4497
38.0662
48.5489
99.4497
38.0661
48.5489
99.4499
38.0614
48.5459
75.8955
73.5905
74.0462
79.2327
76.6865
77.1678
78.8849
76.3636
76.8395
78.5382
76.042
76.2109
73.4535
78.1926
75.7213
75.884
76.2274
77.849
75.4025
75.5589
75.9013
77.5134
75.0907
75.241
75.5824
77.1845
74.7851
74.9296
75.2684
76.8842
74.5039
74.6432
74.6538
73.5646
76.4584
74.1141
74.2454
74.2503
74.5913
76.1382
73.8161
73.9417
73.943
74.356
75.8126
73.5133
73.6332
73.9687
)
;

boundaryField
{
    inlet
    {
        type            calculated;
        value           uniform 0;
    }
    outlet2
    {
        type            calculated;
        value           uniform 0;
    }
    outlet1
    {
        type            calculated;
        value           nonuniform List<scalar> 0();
    }
    wall
    {
        type            calculated;
        value           uniform 0;
    }
    symmetryBottom
    {
        type            symmetry;
    }
    symmetryZ0
    {
        type            symmetry;
    }
    symmetryZ05
    {
        type            symmetry;
    }
    procBoundary1to0
    {
        type            processor;
        value           uniform 0;
    }
}


// ************************************************************************* //
