/*--------------------------------*- C++ -*----------------------------------*\
| =========                 |                                                 |
| \\      /  F ield         | OpenFOAM: The Open Source CFD Toolbox           |
|  \\    /   O peration     | Version:  2412                                  |
|   \\  /    A nd           | Website:  www.openfoam.com                      |
|    \\/     M anipulation  |                                                 |
\*---------------------------------------------------------------------------*/
FoamFile
{
    version     2.0;
    format      ascii;
    arch        "LSB;label=32;scalar=64";
    class       volScalarField;
    location    "9.8e-06";
    object      p;
}
// * * * * * * * * * * * * * * * * * * * * * * * * * * * * * * * * * * * * * //

dimensions      [0 0 0 0 0 0 0];

internalField   nonuniform List<scalar> 
84
(
1.22506
0.59918
0.648375
0.646204
0.646713
0.647166
0.646956
0.655326
1.29195
0.63267
0.685
0.683272
0.68438
0.685443
0.685892
0.69463
1.27327
0.634382
0.678819
0.677751
0.678738
0.679722
0.680084
0.688765
1.25851
0.623495
0.673881
0.672086
0.673066
0.673305
0.681923
1.26008
0.616603
0.667517
0.665585
0.666457
0.666579
0.675135
1.24871
0.610787
0.66116
0.659147
0.659912
0.65992
0.668413
1.23719
0.60508
0.654858
0.652772
0.653431
0.653326
0.661758
1.22191
0.602382
0.648319
0.646475
0.647013
0.646798
0.655169
1.20934
0.594431
0.64273
0.640558
0.640337
0.648644
1.20387
0.5883
0.636537
0.634264
0.633937
0.642184
1.19196
0.58275
0.630375
0.628033
0.627601
0.635787
1.16932
0.578744
0.62413
0.621814
0.621968
0.621332
0.629462
)
;

boundaryField
{
    inlet
    {
        type            calculated;
        value           nonuniform List<scalar> 0();
    }
    outlet2
    {
        type            calculated;
        value           uniform 0;
    }
    outlet1
    {
        type            calculated;
        value           uniform 0;
    }
    wall
    {
        type            calculated;
        value           uniform 0;
    }
    symmetryBottom
    {
        type            symmetry;
    }
    symmetryZ0
    {
        type            symmetry;
    }
    symmetryZ05
    {
        type            symmetry;
    }
    procBoundary0to1
    {
        type            processor;
        value           uniform 0;
    }
}


// ************************************************************************* //
