/*--------------------------------*- C++ -*----------------------------------*\
| =========                 |                                                 |
| \\      /  F ield         | OpenFOAM: The Open Source CFD Toolbox           |
|  \\    /   O peration     | Version:  2412                                  |
|   \\  /    A nd           | Website:  www.openfoam.com                      |
|    \\/     M anipulation  |                                                 |
\*---------------------------------------------------------------------------*/
FoamFile
{
    version     2.0;
    format      ascii;
    arch        "LSB;label=32;scalar=64";
    class       volVectorField;
    location    "9.8e-06";
    object      U;
}
// * * * * * * * * * * * * * * * * * * * * * * * * * * * * * * * * * * * * * //

dimensions      [0 0 0 0 0 0 0];

internalField   nonuniform List<vector> 
84
(
(2636.4 -0.197988 1.19134e-14)
(2623.25 -0.23242 -1.2915e-14)
(2626.31 -0.232193 -3.35046e-14)
(2626.1 -0.239567 1.69394e-14)
(2626.11 -0.246763 -1.85864e-15)
(2626.11 -0.254277 -1.29077e-15)
(2626.07 -0.263088 3.01943e-14)
(2626.33 -0.260854 2.56898e-15)
(2637.91 -10.1197 1.08585e-14)
(2624.95 -10.441 -1.15517e-14)
(2627.99 -10.5369 -3.88976e-14)
(2627.8 -10.6969 9.28394e-15)
(2627.84 -10.8571 -6.82479e-14)
(2627.86 -11.0214 8.56271e-15)
(2627.85 -11.2099 5.43823e-14)
(2628.1 -11.171 9.55444e-15)
(2637.62 -9.4727 -4.97798e-14)
(2625.26 -11.9117 1.14584e-14)
(2627.82 -10.6282 1.89131e-14)
(2627.69 -10.9179 -1.50088e-15)
(2627.72 -11.0774 -4.04848e-15)
(2627.74 -11.2486 2.99354e-14)
(2627.73 -11.4446 -2.02252e-14)
(2627.98 -11.4042 -2.41763e-14)
(2637.38 -9.20076 -4.99039e-14)
(2624.79 -10.9853 3.51197e-14)
(2627.73 -10.9038 2.37406e-15)
(2627.55 -11.0829 -6.52556e-14)
(2627.59 -11.2535 5.9118e-14)
(2627.57 -11.4498 1.00246e-14)
(2627.82 -11.4093 -1.92636e-14)
(2637.53 -10.4569 -2.65079e-14)
(2624.54 -10.7932 -9.63657e-15)
(2627.59 -10.9146 7.97252e-16)
(2627.4 -11.0843 1.32673e-15)
(2627.43 -11.2553 -2.08541e-14)
(2627.41 -11.4516 1.28854e-14)
(2627.66 -11.4111 3.70504e-14)
(2637.38 -10.4831 -1.75849e-14)
(2624.39 -10.791 3.78249e-14)
(2627.43 -10.9164 -6.26871e-15)
(2627.24 -11.0859 4.39032e-14)
(2627.27 -11.2569 -4.04162e-14)
(2627.25 -11.4534 3.61059e-14)
(2627.5 -11.4129 -6.03795e-14)
(2637.24 -10.4789 -1.68883e-15)
(2624.24 -10.8019 3.54468e-14)
(2627.28 -10.917 -2.64244e-15)
(2627.09 -11.0876 -2.40551e-15)
(2627.11 -11.2586 3.44364e-14)
(2627.09 -11.4551 1.80923e-15)
(2627.34 -11.4146 3.15199e-14)
(2637.01 -9.69086 2.60042e-16)
(2624.29 -12.1421 6.23865e-16)
(2627.1 -10.7951 -1.21274e-16)
(2626.93 -11.0964 -4.62444e-16)
(2626.95 -11.26 1.2267e-16)
(2626.93 -11.4569 2.23357e-15)
(2627.18 -11.4163 -2.5705e-14)
(2636.82 -9.30517 6.24599e-14)
(2623.98 -11.1666 -3.14236e-15)
(2626.98 -11.0784 -6.60825e-14)
(2626.79 -11.2625 -2.41953e-14)
(2626.77 -11.4586 3.77865e-14)
(2627.02 -11.4181 -2.43696e-15)
(2636.81 -10.6318 -2.154e-14)
(2623.78 -10.9622 6.3507e-15)
(2626.83 -11.0898 -3.75007e-14)
(2626.63 -11.2639 3.30662e-14)
(2626.61 -11.4604 6.11038e-14)
(2626.86 -11.4198 -5.74857e-15)
(2636.64 -9.9735 -2.91702e-14)
(2623.64 -11.0991 4.50439e-15)
(2626.67 -11.0843 -5.06947e-15)
(2626.47 -11.2659 5.75224e-14)
(2626.45 -11.4622 6.57311e-14)
(2626.71 -11.4216 1.00743e-15)
(2636.38 -0.641311 -1.58661e-15)
(2623.59 -13.5917 2.78179e-16)
(2626.51 -10.7237 -3.33931e-15)
(2626.31 -11.1014 4.16654e-14)
(2626.32 -11.2623 -3.54391e-15)
(2626.28 -11.4596 3.07465e-15)
(2626.55 -11.4194 -3.32878e-14)
)
;

boundaryField
{
    inlet
    {
        type            calculated;
        value           nonuniform List<vector> 0();
    }
    outlet2
    {
        type            calculated;
        value           uniform (0 0 0);
    }
    outlet1
    {
        type            calculated;
        value           uniform (0 0 0);
    }
    wall
    {
        type            calculated;
        value           uniform (0 0 0);
    }
    symmetryBottom
    {
        type            symmetry;
    }
    symmetryZ0
    {
        type            symmetry;
    }
    symmetryZ05
    {
        type            symmetry;
    }
    procBoundary0to1
    {
        type            processor;
        value           uniform (0 0 0);
    }
}


// ************************************************************************* //
