/*--------------------------------*- C++ -*----------------------------------*\
| =========                 |                                                 |
| \\      /  F ield         | OpenFOAM: The Open Source CFD Toolbox           |
|  \\    /   O peration     | Version:  2412                                  |
|   \\  /    A nd           | Website:  www.openfoam.com                      |
|    \\/     M anipulation  |                                                 |
\*---------------------------------------------------------------------------*/
FoamFile
{
    version     2.0;
    format      ascii;
    arch        "LSB;label=32;scalar=64";
    class       volScalarField;
    location    "9.8e-06";
    object      E_dof0;
}
// * * * * * * * * * * * * * * * * * * * * * * * * * * * * * * * * * * * * * //

dimensions      [0 0 0 0 0 0 0];

internalField   nonuniform List<scalar> 
84
(
102.259
49.535
53.6772
53.4773
53.5041
53.5257
53.4888
54.1943
109.921
53.3406
57.8473
57.6971
57.7918
57.8826
57.9204
58.6684
108.324
53.4986
57.32
57.2275
57.3118
57.396
57.4265
58.1695
107.029
52.562
56.8989
56.7433
56.8271
56.8471
57.5847
107.182
51.9723
56.3553
56.1878
56.2625
56.2725
57.0047
106.202
51.4764
55.8123
55.638
55.7034
55.7036
56.4305
105.212
50.9888
55.274
55.0935
55.1499
55.1405
55.8619
103.908
50.7662
54.7148
54.5558
54.6018
54.5829
55.2991
102.803
50.0828
54.2382
54.0505
54.0313
54.7419
102.348
49.5588
53.7094
53.5131
53.4849
54.1902
101.316
49.0865
53.1833
52.9811
52.9439
53.644
99.3871
48.7554
52.6493
52.45
52.4632
52.4085
53.1037
)
;

boundaryField
{
    inlet
    {
        type            calculated;
        value           nonuniform List<scalar> 0();
    }
    outlet2
    {
        type            calculated;
        value           uniform 99.4306;
    }
    outlet1
    {
        type            calculated;
        value           uniform 99.4306;
    }
    wall
    {
        type            calculated;
        value           uniform 99.4306;
    }
    symmetryBottom
    {
        type            symmetry;
    }
    symmetryZ0
    {
        type            symmetry;
    }
    symmetryZ05
    {
        type            symmetry;
    }
    procBoundary0to1
    {
        type            processor;
        value           uniform 99.4306;
    }
}


// ************************************************************************* //
