/*--------------------------------*- C++ -*----------------------------------*\
| =========                 |                                                 |
| \\      /  F ield         | OpenFOAM: The Open Source CFD Toolbox           |
|  \\    /   O peration     | Version:  2412                                  |
|   \\  /    A nd           | Website:  www.openfoam.com                      |
|    \\/     M anipulation  |                                                 |
\*---------------------------------------------------------------------------*/
FoamFile
{
    version     2.0;
    format      ascii;
    arch        "LSB;label=32;scalar=64";
    class       volScalarField;
    location    "9.8e-06";
    object      rho;
}
// * * * * * * * * * * * * * * * * * * * * * * * * * * * * * * * * * * * * * //

dimensions      [0 0 0 0 0 0 0];

internalField   nonuniform List<scalar> 
84
(
2.88986e-05
1.41368e-05
1.52836e-05
1.52291e-05
1.52365e-05
1.52426e-05
1.52325e-05
1.54304e-05
3.10384e-05
1.52084e-05
1.64557e-05
1.64152e-05
1.64418e-05
1.64673e-05
1.64782e-05
1.66878e-05
3.05943e-05
1.52498e-05
1.63077e-05
1.6283e-05
1.63067e-05
1.63303e-05
1.63391e-05
1.65474e-05
3.02339e-05
1.49882e-05
1.6189e-05
1.61469e-05
1.61703e-05
1.61762e-05
1.6383e-05
3.02737e-05
1.48228e-05
1.60361e-05
1.59907e-05
1.60116e-05
1.60146e-05
1.62199e-05
2.99999e-05
1.4683e-05
1.58834e-05
1.5836e-05
1.58543e-05
1.58546e-05
1.60584e-05
2.97236e-05
1.45456e-05
1.5732e-05
1.56829e-05
1.56986e-05
1.56962e-05
1.58986e-05
2.93602e-05
1.44815e-05
1.55749e-05
1.55316e-05
1.55444e-05
1.55394e-05
1.57403e-05
2.90522e-05
1.42899e-05
1.54406e-05
1.53894e-05
1.53842e-05
1.55835e-05
2.89237e-05
1.41424e-05
1.52919e-05
1.52382e-05
1.52304e-05
1.54283e-05
2.86356e-05
1.40092e-05
1.51438e-05
1.50885e-05
1.50782e-05
1.52746e-05
2.80964e-05
1.39152e-05
1.49936e-05
1.49391e-05
1.49427e-05
1.49275e-05
1.51226e-05
)
;

boundaryField
{
    inlet
    {
        type            calculated;
        value           nonuniform List<scalar> 0();
    }
    outlet2
    {
        type            calculated;
        value           uniform 0;
    }
    outlet1
    {
        type            calculated;
        value           uniform 0;
    }
    wall
    {
        type            calculated;
        value           uniform 0;
    }
    symmetryBottom
    {
        type            symmetry;
    }
    symmetryZ0
    {
        type            symmetry;
    }
    symmetryZ05
    {
        type            symmetry;
    }
    procBoundary0to1
    {
        type            processor;
        value           uniform 0;
    }
}


// ************************************************************************* //
