/*--------------------------------*- C++ -*----------------------------------*\
| =========                 |                                                 |
| \\      /  F ield         | OpenFOAM: The Open Source CFD Toolbox           |
|  \\    /   O peration     | Version:  2412                                  |
|   \\  /    A nd           | Website:  www.openfoam.com                      |
|    \\/     M anipulation  |                                                 |
\*---------------------------------------------------------------------------*/
FoamFile
{
    version     2.0;
    format      ascii;
    arch        "LSB;label=32;scalar=64";
    class       volVectorField;
    location    "9.8e-06";
    object      rhoU;
}
// * * * * * * * * * * * * * * * * * * * * * * * * * * * * * * * * * * * * * //

dimensions      [0 0 0 0 0 0 0];

internalField   nonuniform List<vector> 
84
(
(0.0761881 -5.72158e-06 3.44281e-19)
(0.0370843 -3.28566e-06 -1.82577e-19)
(0.0401396 -3.54875e-06 -5.12072e-19)
(0.0399931 -3.64837e-06 2.57971e-19)
(0.0400128 -3.75981e-06 -2.83193e-20)
(0.0400287 -3.87584e-06 -1.96746e-20)
(0.0400015 -4.00748e-06 4.59934e-19)
(0.0405252 -4.02507e-06 3.96402e-20)
(0.0818764 -0.000314097 3.37028e-19)
(0.0399213 -0.00015879 -1.75683e-19)
(0.0432454 -0.000173392 -6.40087e-19)
(0.043136 -0.000175592 1.52398e-19)
(0.0432063 -0.00017851 -1.12212e-18)
(0.0432738 -0.000181493 1.41005e-19)
(0.0433021 -0.000184718 8.9612e-19)
(0.0438573 -0.000186419 1.59443e-19)
(0.0806961 -0.000289811 -1.52298e-18)
(0.0400347 -0.000181651 1.74737e-19)
(0.0428538 -0.000173322 3.08431e-19)
(0.0427867 -0.000177776 -2.44389e-20)
(0.0428493 -0.000180636 -6.60172e-20)
(0.0429118 -0.000183693 4.88854e-19)
(0.0429348 -0.000186995 -3.30462e-19)
(0.0434863 -0.00018871 -4.00056e-19)
(0.0797383 -0.000278175 -1.50879e-18)
(0.0393408 -0.00016465 5.26382e-19)
(0.0425403 -0.000176521 3.84336e-20)
(0.0424268 -0.000178955 -1.05367e-18)
(0.0424889 -0.000181973 9.55958e-19)
(0.0425041 -0.000185215 1.6216e-19)
(0.0430517 -0.000186919 -3.15596e-19)
(0.0798477 -0.000316568 -8.02492e-19)
(0.038903 -0.000159986 -1.42841e-19)
(0.0421362 -0.000175028 1.27848e-20)
(0.0420139 -0.000177245 2.12154e-20)
(0.0420692 -0.000180214 -3.33907e-19)
(0.042077 -0.000183393 2.06354e-19)
(0.0426205 -0.000185087 6.00955e-19)
(0.0791212 -0.000314492 -5.27545e-19)
(0.038534 -0.000158445 5.55383e-19)
(0.0417325 -0.000173389 -9.95682e-20)
(0.0416051 -0.000175557 6.95252e-19)
(0.0416536 -0.000178471 -6.40772e-19)
(0.0416541 -0.000181589 5.72446e-19)
(0.0421936 -0.000183273 -9.69602e-19)
(0.0783881 -0.000311472 -5.01981e-20)
(0.0381711 -0.00015712 5.15594e-19)
(0.0413324 -0.000171747 -4.15709e-20)
(0.0412003 -0.000173885 -3.77253e-20)
(0.0412421 -0.000176745 5.40605e-19)
(0.0412354 -0.000179802 2.8398e-20)
(0.041771 -0.000181476 5.01121e-19)
(0.0774232 -0.000284525 7.63489e-21)
(0.0380036 -0.000175835 9.03448e-21)
(0.0409168 -0.000168132 -1.88883e-21)
(0.0408005 -0.000172344 -7.18249e-21)
(0.0408345 -0.000175031 1.90684e-21)
(0.0408209 -0.000178033 3.47083e-20)
(0.0413525 -0.000179696 -4.04603e-19)
(0.0766054 -0.000270336 1.8146e-18)
(0.0374964 -0.000159569 -4.4904e-20)
(0.0405623 -0.000171057 -1.02036e-18)
(0.0404248 -0.000173324 -3.72352e-19)
(0.0404107 -0.000176282 5.81314e-19)
(0.0409382 -0.000177934 -3.79764e-20)
(0.0762662 -0.000307511 -6.23015e-19)
(0.0371067 -0.000155032 8.98144e-20)
(0.0401691 -0.000169584 -5.73456e-19)
(0.0400252 -0.000171641 5.03871e-19)
(0.0400044 -0.000174547 9.30637e-19)
(0.0405281 -0.000176188 -8.86906e-20)
(0.0755018 -0.000285597 -8.35306e-19)
(0.0367551 -0.00015549 6.3103e-20)
(0.0397778 -0.000167858 -7.67711e-20)
(0.0396296 -0.000169985 8.67929e-19)
(0.0396021 -0.000172829 9.91107e-19)
(0.0401219 -0.00017446 1.53881e-20)
(0.0740728 -1.80185e-05 -4.45781e-20)
(0.0365076 -0.00018913 3.87091e-21)
(0.0393809 -0.000160788 -5.00684e-20)
(0.0392346 -0.000165845 6.22441e-19)
(0.0392443 -0.000168289 -5.29555e-20)
(0.0392039 -0.000171064 4.58969e-20)
(0.0397202 -0.000172691 -5.03397e-19)
)
;

boundaryField
{
    inlet
    {
        type            calculated;
        value           nonuniform List<vector> 0();
    }
    outlet2
    {
        type            calculated;
        value           uniform (0 0 0);
    }
    outlet1
    {
        type            calculated;
        value           uniform (0 0 0);
    }
    wall
    {
        type            calculated;
        value           uniform (0 0 0);
    }
    symmetryBottom
    {
        type            symmetry;
    }
    symmetryZ0
    {
        type            symmetry;
    }
    symmetryZ05
    {
        type            symmetry;
    }
    procBoundary0to1
    {
        type            processor;
        value           uniform (0 0 0);
    }
}


// ************************************************************************* //
