/*--------------------------------*- C++ -*----------------------------------*\
| =========                 |                                                 |
| \\      /  F ield         | OpenFOAM: The Open Source CFD Toolbox           |
|  \\    /   O peration     | Version:  2412                                  |
|   \\  /    A nd           | Website:  www.openfoam.com                      |
|    \\/     M anipulation  |                                                 |
\*---------------------------------------------------------------------------*/
FoamFile
{
    version     2.0;
    format      ascii;
    arch        "LSB;label=32;scalar=64";
    class       volVectorField;
    location    "7.1e-06";
    object      rhoU;
}
// * * * * * * * * * * * * * * * * * * * * * * * * * * * * * * * * * * * * * //

dimensions      [0 0 0 0 0 0 0];

internalField   nonuniform List<vector> 
84
(
(0.0716077 0.000196289 2.00365e-19)
(0.0438864 0.000122961 -1.89458e-19)
(0.0471024 0.000133565 -3.06768e-19)
(0.0468598 0.000134811 2.09482e-19)
(0.0468776 0.000136824 -3.37537e-20)
(0.0468809 0.000138856 2.70159e-20)
(0.0468851 0.000140951 2.93837e-19)
(0.0472701 0.000141839 3.0848e-20)
(0.0763497 -0.000215883 2.00636e-19)
(0.0468687 -0.000137804 -1.89522e-19)
(0.0503363 -0.000148844 -4.08897e-19)
(0.0501281 -0.000150612 5.84762e-20)
(0.0501976 -0.000153112 -7.60182e-19)
(0.0502534 -0.000155659 2.02344e-19)
(0.0503118 -0.000158295 6.24231e-19)
(0.050718 -0.000159228 1.13297e-19)
(0.0753856 -0.000190863 -7.88549e-19)
(0.0470079 -0.000158936 1.64665e-19)
(0.0499255 -0.000144715 2.19567e-19)
(0.049785 -0.000149859 -3.25488e-20)
(0.0498429 -0.000152052 -1.20456e-20)
(0.0498932 -0.000154582 2.9331e-19)
(0.0499455 -0.000157181 -2.54601e-19)
(0.0503494 -0.00015811 -2.79974e-19)
(0.0750342 -0.000198524 -7.49819e-19)
(0.0462963 -0.000139098 3.50903e-19)
(0.0496909 -0.000149209 -4.54588e-20)
(0.0494766 -0.000150995 -6.78662e-19)
(0.0495361 -0.000153513 6.9205e-19)
(0.0495817 -0.000156076 1.05276e-19)
(0.0499835 -0.000157001 -2.55557e-19)
(0.0749136 -0.00021558 -4.48657e-19)
(0.0459474 -0.00013681 -1.11333e-19)
(0.0493464 -0.000148339 1.55257e-20)
(0.0491265 -0.000150016 4.68493e-21)
(0.0491802 -0.000152505 -2.30442e-19)
(0.0492199 -0.000155035 2.12538e-19)
(0.0496195 -0.000155956 4.31218e-19)
(0.0744071 -0.000207743 -2.91976e-19)
(0.0456282 -0.000131549 3.69478e-19)
(0.0489996 -0.000142761 -4.76352e-20)
(0.0487758 -0.000144407 4.38762e-19)
(0.0488237 -0.000146847 -4.11324e-19)
(0.0488574 -0.000149328 3.43385e-19)
(0.0492549 -0.000150216 -7.25285e-19)
(0.0738953 -0.000165941 -1.18959e-22)
(0.0453105 -0.000105402 3.34693e-19)
(0.048651 -0.000114101 -4.51181e-20)
(0.0484237 -0.000115438 2.25297e-21)
(0.0484657 -0.000117368 3.57984e-19)
(0.0484934 -0.000119333 3.71881e-20)
(0.0488887 -0.000120046 3.53784e-19)
(0.0731573 -0.000120685 8.22069e-21)
(0.045252 -0.000106872 6.41287e-21)
(0.048276 -9.4435e-05 -2.34463e-21)
(0.0480845 -9.82814e-05 -6.04374e-21)
(0.0481176 -9.97199e-05 -1.15133e-21)
(0.0481399 -0.000101419 2.96911e-21)
(0.048533 -0.000102023 -2.80188e-19)
(0.0726895 -0.000115286 1.0636e-18)
(0.044694 -8.04323e-05 -1.18638e-19)
(0.0479641 -8.64119e-05 -7.45252e-19)
(0.0477299 -8.74189e-05 -2.10487e-19)
(0.0477604 -8.88651e-05 4.17954e-19)
(0.0481506 -8.94017e-05 -6.12411e-20)
(0.0724655 -0.000121635 -3.72536e-19)
(0.0444087 -7.66968e-05 4.2327e-20)
(0.0476744 -8.32201e-05 -3.43707e-19)
(0.0474367 -8.4075e-05 3.88326e-19)
(0.0474631 -8.53952e-05 6.40822e-19)
(0.0478513 -8.59212e-05 -8.12129e-20)
(0.071835 -0.0001267 -4.61954e-19)
(0.0441013 -8.86643e-05 5.69972e-20)
(0.0473188 -9.42584e-05 -3.30062e-21)
(0.0470786 -9.54013e-05 6.66771e-19)
(0.0470988 -9.69153e-05 6.66169e-19)
(0.0474848 -9.75089e-05 1.70008e-20)
(0.0709062 -2.13383e-05 -4.12652e-20)
(0.0439213 -0.000123403 3.41568e-21)
(0.0469742 -0.000108573 -1.99194e-22)
(0.0467477 -0.000111913 4.07187e-19)
(0.0467613 -0.000113504 -5.34353e-20)
(0.0467617 -0.000115274 4.33572e-21)
(0.0471463 -0.000115987 -3.33865e-19)
)
;

boundaryField
{
    inlet
    {
        type            calculated;
        value           nonuniform List<vector> 0();
    }
    outlet2
    {
        type            calculated;
        value           uniform (0 0 0);
    }
    outlet1
    {
        type            calculated;
        value           uniform (0 0 0);
    }
    wall
    {
        type            calculated;
        value           uniform (0 0 0);
    }
    symmetryBottom
    {
        type            symmetry;
    }
    symmetryZ0
    {
        type            symmetry;
    }
    symmetryZ05
    {
        type            symmetry;
    }
    procBoundary0to1
    {
        type            processor;
        value           uniform (0 0 0);
    }
}


// ************************************************************************* //
