/*--------------------------------*- C++ -*----------------------------------*\
| =========                 |                                                 |
| \\      /  F ield         | OpenFOAM: The Open Source CFD Toolbox           |
|  \\    /   O peration     | Version:  2412                                  |
|   \\  /    A nd           | Website:  www.openfoam.com                      |
|    \\/     M anipulation  |                                                 |
\*---------------------------------------------------------------------------*/
FoamFile
{
    version     2.0;
    format      ascii;
    arch        "LSB;label=32;scalar=64";
    class       volVectorField;
    location    "7.1e-06";
    object      U;
}
// * * * * * * * * * * * * * * * * * * * * * * * * * * * * * * * * * * * * * //

dimensions      [0 0 0 0 0 0 0];

internalField   nonuniform List<vector> 
84
(
(2633.94 7.22007 7.37002e-15)
(2625.4 7.35585 -1.13339e-14)
(2627.93 7.45185 -1.71152e-14)
(2627.65 7.55949 1.17466e-14)
(2627.65 7.66946 -1.89201e-15)
(2627.62 7.78272 1.51421e-15)
(2627.6 7.89935 1.64676e-14)
(2627.75 7.88488 1.71484e-15)
(2636.29 -7.45426 6.92779e-15)
(2627.92 -7.72665 -1.06265e-14)
(2630.45 -7.7782 -2.13679e-14)
(2630.21 -7.90256 3.06823e-15)
(2630.24 -8.0227 -3.98319e-14)
(2630.26 -8.14719 1.05906e-14)
(2630.28 -8.27557 3.26345e-14)
(2630.42 -8.25815 5.87599e-15)
(2636.03 -6.67397 -2.75734e-14)
(2628.18 -8.88599 9.2063e-15)
(2630.27 -7.62414 1.15677e-14)
(2630.1 -7.91693 -1.71953e-15)
(2630.13 -8.02354 -6.35629e-16)
(2630.15 -8.14886 1.5462e-14)
(2630.16 -8.27725 -1.34075e-14)
(2630.3 -8.25982 -1.46261e-14)
(2635.96 -6.97419 -2.63413e-14)
(2627.74 -7.89512 1.9917e-14)
(2630.24 -7.89794 -2.40623e-15)
(2630 -8.02636 -3.60752e-14)
(2630.03 -8.15049 3.67432e-14)
(2630.05 -8.27899 5.58435e-15)
(2630.19 -8.26155 -1.34477e-14)
(2636 -7.58567 -1.5787e-14)
(2627.6 -7.82377 -6.3668e-15)
(2630.13 -7.90639 8.27508e-16)
(2629.89 -8.03079 2.50798e-16)
(2629.92 -8.15523 -1.23229e-14)
(2629.93 -8.28387 1.13564e-14)
(2630.07 -8.26641 2.28566e-14)
(2635.87 -7.35929 -1.03432e-14)
(2627.45 -7.57507 2.1276e-14)
(2629.99 -7.66248 -2.55675e-15)
(2629.74 -7.78569 2.36558e-14)
(2629.77 -7.90955 -2.21549e-14)
(2629.78 -8.03766 1.84828e-14)
(2629.92 -8.02066 -3.87259e-14)
(2635.64 -5.91865 -4.24293e-18)
(2627.14 -6.1113 1.94058e-14)
(2629.7 -6.16741 -2.43873e-15)
(2629.44 -6.26836 1.22338e-16)
(2629.46 -6.36771 1.94221e-14)
(2629.47 -6.47064 2.01646e-15)
(2629.61 -6.45703 1.90293e-14)
(2635.42 -4.34756 2.96142e-16)
(2627.09 -6.2044 3.72298e-16)
(2629.46 -5.14362 -1.27705e-16)
(2629.23 -5.37397 -3.30469e-16)
(2629.25 -5.44891 -6.2911e-17)
(2629.25 -5.53922 1.62163e-16)
(2629.4 -5.52735 -1.51799e-14)
(2635.19 -4.17944 3.85583e-14)
(2626.56 -4.72681 -6.97204e-15)
(2629.15 -4.73667 -4.0851e-14)
(2628.88 -4.81489 -1.15932e-14)
(2628.9 -4.89145 2.30056e-14)
(2629.05 -4.88138 -3.3438e-15)
(2635.36 -4.42351 -1.35481e-14)
(2627.09 -4.53716 2.50395e-15)
(2629.58 -4.59017 -1.89578e-14)
(2629.33 -4.66011 2.15242e-14)
(2629.35 -4.7307 3.55001e-14)
(2629.49 -4.72148 -4.46275e-15)
(2635.3 -4.64803 -1.6947e-14)
(2626.92 -5.28133 3.39506e-15)
(2629.43 -5.23778 -1.8341e-16)
(2629.17 -5.32781 3.72368e-14)
(2629.19 -5.41009 3.71875e-14)
(2629.33 -5.39928 9.41369e-16)
(2635.17 -0.793018 -1.53359e-15)
(2626.87 -7.38054 2.04287e-16)
(2629.34 -6.0773 -1.11497e-17)
(2629.09 -6.294 2.29002e-14)
(2629.11 -6.38167 -3.00435e-15)
(2629.11 -6.48109 2.43769e-16)
(2629.25 -6.46833 -1.8619e-14)
)
;

boundaryField
{
    inlet
    {
        type            calculated;
        value           nonuniform List<vector> 0();
    }
    outlet2
    {
        type            calculated;
        value           uniform (0 0 0);
    }
    outlet1
    {
        type            calculated;
        value           uniform (0 0 0);
    }
    wall
    {
        type            calculated;
        value           uniform (0 0 0);
    }
    symmetryBottom
    {
        type            symmetry;
    }
    symmetryZ0
    {
        type            symmetry;
    }
    symmetryZ05
    {
        type            symmetry;
    }
    procBoundary0to1
    {
        type            processor;
        value           uniform (0 0 0);
    }
}


// ************************************************************************* //
