/*--------------------------------*- C++ -*----------------------------------*\
| =========                 |                                                 |
| \\      /  F ield         | OpenFOAM: The Open Source CFD Toolbox           |
|  \\    /   O peration     | Version:  2412                                  |
|   \\  /    A nd           | Website:  www.openfoam.com                      |
|    \\/     M anipulation  |                                                 |
\*---------------------------------------------------------------------------*/
FoamFile
{
    version     2.0;
    format      ascii;
    arch        "LSB;label=32;scalar=64";
    class       volScalarField;
    location    "5.4e-06";
    object      E;
}
// * * * * * * * * * * * * * * * * * * * * * * * * * * * * * * * * * * * * * //

dimensions      [0 0 0 0 0 0 0];

internalField   nonuniform List<scalar> 
84
(
97.4715
67.4911
70.141
69.9905
70.0004
70.0037
70.0073
70.435
102.411
70.9952
73.827
73.7255
73.7936
73.8566
73.9219
74.3675
101.512
70.9905
73.3995
73.3353
73.3945
73.4511
73.5096
73.9533
101.131
70.3192
73.1013
72.9907
73.0479
73.0995
73.5414
100.931
69.9298
72.7121
72.5953
72.646
72.691
73.1311
100.413
69.5613
72.324
72.2018
72.2461
72.2845
72.7228
99.9055
69.2026
71.9446
71.8173
71.8553
71.8873
72.3238
99.2082
69.0525
71.5522
71.4434
71.474
71.4999
71.9346
98.7991
68.5527
71.2497
71.1134
71.1403
71.5732
98.3414
68.0926
70.7772
70.6343
70.6538
71.0844
97.7553
67.7535
70.4076
70.2602
70.2735
70.7024
96.7932
67.504
70.0274
69.8855
69.8923
69.8929
70.3204
)
;

boundaryField
{
    inlet
    {
        type            calculated;
        value           nonuniform List<scalar> 0();
    }
    outlet2
    {
        type            calculated;
        value           uniform 0;
    }
    outlet1
    {
        type            calculated;
        value           uniform 0;
    }
    wall
    {
        type            calculated;
        value           uniform 0;
    }
    symmetryBottom
    {
        type            symmetry;
    }
    symmetryZ0
    {
        type            symmetry;
    }
    symmetryZ05
    {
        type            symmetry;
    }
    procBoundary0to1
    {
        type            processor;
        value           uniform 0;
    }
}


// ************************************************************************* //
