/*--------------------------------*- C++ -*----------------------------------*\
| =========                 |                                                 |
| \\      /  F ield         | OpenFOAM: The Open Source CFD Toolbox           |
|  \\    /   O peration     | Version:  2412                                  |
|   \\  /    A nd           | Website:  www.openfoam.com                      |
|    \\/     M anipulation  |                                                 |
\*---------------------------------------------------------------------------*/
FoamFile
{
    version     2.0;
    format      ascii;
    arch        "LSB;label=32;scalar=64";
    class       volVectorField;
    location    "5.4e-06";
    object      rhoU_dof0;
}
// * * * * * * * * * * * * * * * * * * * * * * * * * * * * * * * * * * * * * //

dimensions      [0 0 0 0 0 0 0];

internalField   nonuniform List<vector> 
84
(
(0.0726685 0.00015327 1.53365e-19)
(0.0504299 0.000108608 -1.51867e-19)
(0.0523844 0.000114288 -2.76678e-19)
(0.0522741 0.000115718 1.6677e-19)
(0.0522815 0.000117442 -1.96603e-20)
(0.052284 0.000119208 2.04641e-20)
(0.0522868 0.000121028 2.6222e-19)
(0.0526042 0.000121587 3.8377e-20)
(0.076323 -0.000164349 1.5721e-19)
(0.0530269 -0.000118111 -1.51711e-19)
(0.0551152 -0.000123949 -3.52055e-19)
(0.0550413 -0.0001257 3.85844e-20)
(0.0550918 -0.000127734 -6.65251e-19)
(0.0551386 -0.000129825 1.45203e-19)
(0.055187 -0.000131986 5.3089e-19)
(0.0555176 -0.000132558 1.07967e-19)
(0.0756579 -0.00014917 -6.37477e-19)
(0.0530214 -0.000130371 1.18978e-19)
(0.0547983 -0.000121939 2.05857e-19)
(0.0547517 -0.000125149 -2.09518e-20)
(0.0547955 -0.000127072 -8.46805e-21)
(0.0548375 -0.000129146 2.6057e-19)
(0.054881 -0.000131285 -2.28187e-19)
(0.0552102 -0.000131855 -2.50854e-19)
(0.0753752 -0.000154189 -6.18908e-19)
(0.0525248 -0.000119214 2.90089e-19)
(0.0545766 -0.000124636 -2.89516e-20)
(0.0544959 -0.000126413 -5.94501e-19)
(0.0545382 -0.000128472 5.83608e-19)
(0.0545766 -0.000130588 1.00904e-19)
(0.0549045 -0.000131157 -2.2928e-19)
(0.0752264 -0.000164706 -3.89329e-19)
(0.0522357 -0.000117998 -1.02777e-19)
(0.0542876 -0.000124065 1.0317e-20)
(0.0542024 -0.000125796 3.15503e-21)
(0.0542399 -0.000127836 -2.16023e-19)
(0.0542733 -0.000129932 1.6901e-19)
(0.0545999 -0.000130498 3.70712e-19)
(0.0748398 -0.000158044 -2.33158e-19)
(0.0519603 -0.000113036 3.13256e-19)
(0.0539977 -0.000118912 -3.03844e-20)
(0.0539084 -0.000120594 3.76456e-19)
(0.0539411 -0.000122576 -3.44917e-19)
(0.0539696 -0.000124613 2.91973e-19)
(0.0542948 -0.000125158 -6.38842e-19)
(0.0744501 -0.000126605 -7.90865e-23)
(0.0516849 -9.06619e-05 2.96568e-19)
(0.0537065 -9.52638e-05 -2.94586e-20)
(0.0536132 -9.66122e-05 6.17225e-22)
(0.0536412 -9.81885e-05 3.11919e-19)
(0.0536647 -9.98094e-05 4.18413e-20)
(0.0539886 -0.000100248 3.08692e-19)
(0.0739207 -9.51002e-05 5.13119e-21)
(0.0515631 -8.69061e-05 3.73221e-21)
(0.0534055 -7.96133e-05 -1.54976e-21)
(0.0533256 -8.19313e-05 -3.88738e-21)
(0.0533478 -8.32051e-05 -8.14959e-22)
(0.0533667 -8.45911e-05 1.74877e-21)
(0.0536892 -8.49627e-05 -2.57963e-19)
(0.073563 -9.02251e-05 8.26538e-19)
(0.0511492 -6.94083e-05 -7.13188e-20)
(0.053135 -7.26465e-05 -6.51131e-19)
(0.0530341 -7.36721e-05 -2.11938e-19)
(0.0530528 -7.48683e-05 3.55193e-19)
(0.0533737 -7.52014e-05 -3.58051e-20)
(0.073347 -9.44875e-05 -2.95466e-19)
(0.0508983 -6.73091e-05 2.55615e-20)
(0.0528801 -7.08044e-05 -3.01316e-19)
(0.0527758 -7.17451e-05 3.3133e-19)
(0.0527907 -7.28651e-05 5.53526e-19)
(0.0531104 -7.31945e-05 -5.60167e-20)
(0.0728832 -0.000100017 -4.16399e-19)
(0.0506265 -7.68136e-05 3.49273e-20)
(0.0525845 -7.99683e-05 -1.29677e-21)
(0.0524765 -8.10948e-05 5.81046e-19)
(0.0524864 -8.23731e-05 6.00762e-19)
(0.0528047 -8.27439e-05 2.4641e-20)
(0.0721599 -1.33611e-05 -2.74495e-20)
(0.0504372 -0.000102481 1.66092e-21)
(0.0522976 -9.30546e-05 -7.11105e-23)
(0.0521937 -9.52935e-05 3.53163e-19)
(0.0521987 -9.67125e-05 -3.46899e-20)
(0.0521992 -9.82221e-05 2.09417e-21)
(0.0525165 -9.86685e-05 -2.99619e-19)
)
;

boundaryField
{
    inlet
    {
        type            calculated;
        value           nonuniform List<vector> 0();
    }
    outlet2
    {
        type            calculated;
        value           uniform (0.0741049 0 0);
    }
    outlet1
    {
        type            calculated;
        value           uniform (0.0741049 0 0);
    }
    wall
    {
        type            calculated;
        value           uniform (0.0741049 0 0);
    }
    symmetryBottom
    {
        type            symmetry;
    }
    symmetryZ0
    {
        type            symmetry;
    }
    symmetryZ05
    {
        type            symmetry;
    }
    procBoundary0to1
    {
        type            processor;
        value           uniform (0.0741049 0 0);
    }
}


// ************************************************************************* //
