/*--------------------------------*- C++ -*----------------------------------*\
| =========                 |                                                 |
| \\      /  F ield         | OpenFOAM: The Open Source CFD Toolbox           |
|  \\    /   O peration     | Version:  2412                                  |
|   \\  /    A nd           | Website:  www.openfoam.com                      |
|    \\/     M anipulation  |                                                 |
\*---------------------------------------------------------------------------*/
FoamFile
{
    version     2.0;
    format      ascii;
    arch        "LSB;label=32;scalar=64";
    class       volScalarField;
    location    "3.2e-06";
    object      rho_dof0;
}
// * * * * * * * * * * * * * * * * * * * * * * * * * * * * * * * * * * * * * //

dimensions      [0 0 0 0 0 0 0];

internalField   nonuniform List<scalar> 
84
(
2.79489e-05
2.26189e-05
2.28916e-05
2.28831e-05
2.28839e-05
2.28844e-05
2.2885e-05
2.29638e-05
2.87682e-05
2.32964e-05
2.35868e-05
2.35886e-05
2.36003e-05
2.3612e-05
2.36242e-05
2.37049e-05
2.86434e-05
2.32607e-05
2.3512e-05
2.3515e-05
2.35254e-05
2.35359e-05
2.35469e-05
2.36274e-05
2.85759e-05
2.31644e-05
2.34506e-05
2.34505e-05
2.34601e-05
2.34698e-05
2.35501e-05
2.85234e-05
2.30918e-05
2.33773e-05
2.3376e-05
2.33844e-05
2.33929e-05
2.3473e-05
2.84373e-05
2.30203e-05
2.3304e-05
2.33016e-05
2.33088e-05
2.3316e-05
2.3396e-05
2.83511e-05
2.29492e-05
2.32308e-05
2.32273e-05
2.32333e-05
2.32393e-05
2.33191e-05
2.82447e-05
2.28982e-05
2.31571e-05
2.31538e-05
2.31587e-05
2.31635e-05
2.32431e-05
2.81647e-05
2.281e-05
2.30874e-05
2.30817e-05
2.30855e-05
2.31649e-05
2.81014e-05
2.27414e-05
2.30177e-05
2.30111e-05
2.30138e-05
2.3093e-05
2.80036e-05
2.26695e-05
2.29432e-05
2.29353e-05
2.29368e-05
2.30158e-05
2.78369e-05
2.26098e-05
2.287e-05
2.28617e-05
2.2862e-05
2.28621e-05
2.2941e-05
)
;

boundaryField
{
    inlet
    {
        type            calculated;
        value           nonuniform List<scalar> 0();
    }
    outlet2
    {
        type            calculated;
        value           uniform 2.81085e-05;
    }
    outlet1
    {
        type            calculated;
        value           uniform 2.81085e-05;
    }
    wall
    {
        type            calculated;
        value           uniform 2.81085e-05;
    }
    symmetryBottom
    {
        type            symmetry;
    }
    symmetryZ0
    {
        type            symmetry;
    }
    symmetryZ05
    {
        type            symmetry;
    }
    procBoundary0to1
    {
        type            processor;
        value           uniform 2.81085e-05;
    }
}


// ************************************************************************* //
