/*--------------------------------*- C++ -*----------------------------------*\
| =========                 |                                                 |
| \\      /  F ield         | OpenFOAM: The Open Source CFD Toolbox           |
|  \\    /   O peration     | Version:  2412                                  |
|   \\  /    A nd           | Website:  www.openfoam.com                      |
|    \\/     M anipulation  |                                                 |
\*---------------------------------------------------------------------------*/
FoamFile
{
    version     2.0;
    format      ascii;
    arch        "LSB;label=32;scalar=64";
    class       volVectorField;
    location    "3.2e-06";
    object      rhoU_dof0;
}
// * * * * * * * * * * * * * * * * * * * * * * * * * * * * * * * * * * * * * //

dimensions      [0 0 0 0 0 0 0];

internalField   nonuniform List<vector> 
84
(
(0.0736606 9.34278e-05 9.56184e-20)
(0.0595352 7.70119e-05 -9.56062e-20)
(0.060262 7.90419e-05 -2.16466e-19)
(0.0602389 8.01821e-05 1.04351e-19)
(0.0602407 8.13877e-05 -6.06714e-21)
(0.0602419 8.26294e-05 1.23879e-20)
(0.0602431 8.39095e-05 2.03305e-19)
(0.0604521 8.41281e-05 4.27557e-20)
(0.0758507 -9.69337e-05 9.93034e-20)
(0.0613445 -8.06817e-05 -9.34002e-20)
(0.0621188 -8.27501e-05 -2.58141e-19)
(0.0621232 -8.40092e-05 1.66337e-20)
(0.062154 -8.53344e-05 -4.64184e-19)
(0.0621852 -8.67015e-05 7.44889e-20)
(0.0622174 -8.8113e-05 3.7386e-19)
(0.0624314 -8.83274e-05 7.74492e-20)
(0.0755191 -9.13219e-05 -4.40486e-19)
(0.0612506 -8.4901e-05 6.90245e-20)
(0.0619204 -8.22326e-05 1.33169e-19)
(0.0619281 -8.37725e-05 -8.51035e-21)
(0.0619557 -8.50801e-05 -4.012e-21)
(0.0619837 -8.64393e-05 1.91584e-19)
(0.0620126 -8.78424e-05 -1.53023e-19)
(0.062226 -8.80563e-05 -1.89979e-19)
(0.0753401 -9.36396e-05 -4.36596e-19)
(0.0609947 -8.1546e-05 2.0459e-19)
(0.0617579 -8.35415e-05 -1.16073e-20)
(0.0617573 -8.48264e-05 -4.15912e-19)
(0.0617827 -8.6178e-05 3.94259e-19)
(0.0618083 -8.75726e-05 8.04609e-20)
(0.0620213 -8.77861e-05 -1.52622e-19)
(0.0752014 -9.76239e-05 -2.41197e-19)
(0.0608023 -8.11812e-05 -7.94673e-20)
(0.0615635 -8.33121e-05 4.35419e-21)
(0.0615599 -8.45864e-05 1.31646e-21)
(0.0615822 -8.59305e-05 -1.38614e-19)
(0.0616046 -8.73172e-05 1.06631e-19)
(0.0618171 -8.75304e-05 2.71914e-19)
(0.0749726 -9.31668e-05 -1.47069e-19)
(0.0606127 -7.73911e-05 2.29148e-19)
(0.0613689 -7.94408e-05 -1.21061e-20)
(0.0613623 -8.06649e-05 2.75627e-19)
(0.0613814 -8.19564e-05 -2.46056e-19)
(0.0614006 -8.32893e-05 2.12783e-19)
(0.0616125 -8.34938e-05 -4.5221e-19)
(0.0747425 -7.4892e-05 -3.30161e-23)
(0.0604227 -6.2196e-05 2.25186e-19)
(0.0611736 -6.38253e-05 -1.19022e-20)
(0.061164 -6.4806e-05 -3.46662e-22)
(0.06118 -6.58396e-05 2.28779e-19)
(0.0611958 -6.69063e-05 3.47825e-20)
(0.0614073 -6.70716e-05 2.36979e-19)
(0.0744596 -5.88427e-05 1.83167e-21)
(0.0602872 -5.60345e-05 1.26123e-21)
(0.0609777 -5.36965e-05 -8.09577e-22)
(0.0609686 -5.47551e-05 -1.56245e-21)
(0.0609814 -5.56235e-05 -2.81282e-22)
(0.0609941 -5.6528e-05 5.38225e-22)
(0.061205 -5.66683e-05 -1.98754e-19)
(0.074247 -5.52966e-05 5.22287e-19)
(0.0600525 -4.79117e-05 -2.64672e-20)
(0.060792 -4.91151e-05 -4.55011e-19)
(0.0607767 -4.98729e-05 -1.69358e-19)
(0.0607867 -5.06715e-05 2.50511e-19)
(0.0609971 -5.07988e-05 -3.10711e-21)
(0.0740806 -5.72011e-05 -1.85507e-19)
(0.0598735 -4.73358e-05 9.42809e-21)
(0.0606102 -4.85927e-05 -2.24724e-19)
(0.0605922 -4.93236e-05 2.36085e-19)
(0.0605994 -5.00956e-05 3.98576e-19)
(0.0608093 -5.0223e-05 -2.35303e-20)
(0.0738221 -6.19226e-05 -2.50859e-19)
(0.0596831 -5.34131e-05 1.26065e-20)
(0.0604129 -5.46703e-05 -1.31636e-22)
(0.0603918 -5.55031e-05 4.07653e-19)
(0.0603957 -5.63769e-05 4.34632e-19)
(0.0606051 -5.65199e-05 2.63832e-20)
(0.0733809 -5.16169e-06 -1.13228e-20)
(0.0595256 -6.76878e-05 3.71271e-22)
(0.0602195 -6.42314e-05 -8.82165e-24)
(0.0601973 -6.54001e-05 2.58707e-19)
(0.0601981 -6.64034e-05 -1.42429e-20)
(0.0601984 -6.7444e-05 4.79659e-22)
(0.0604073 -6.76173e-05 -2.37379e-19)
)
;

boundaryField
{
    inlet
    {
        type            calculated;
        value           nonuniform List<vector> 0();
    }
    outlet2
    {
        type            calculated;
        value           uniform (0.0741049 0 0);
    }
    outlet1
    {
        type            calculated;
        value           uniform (0.0741049 0 0);
    }
    wall
    {
        type            calculated;
        value           uniform (0.0741049 0 0);
    }
    symmetryBottom
    {
        type            symmetry;
    }
    symmetryZ0
    {
        type            symmetry;
    }
    symmetryZ05
    {
        type            symmetry;
    }
    procBoundary0to1
    {
        type            processor;
        value           uniform (0.0741049 0 0);
    }
}


// ************************************************************************* //
