/*--------------------------------*- C++ -*----------------------------------*\
| =========                 |                                                 |
| \\      /  F ield         | OpenFOAM: The Open Source CFD Toolbox           |
|  \\    /   O peration     | Version:  2412                                  |
|   \\  /    A nd           | Website:  www.openfoam.com                      |
|    \\/     M anipulation  |                                                 |
\*---------------------------------------------------------------------------*/
FoamFile
{
    version     2.0;
    format      ascii;
    arch        "LSB;label=32;scalar=64";
    class       volScalarField;
    location    "3.2e-06";
    object      T;
}
// * * * * * * * * * * * * * * * * * * * * * * * * * * * * * * * * * * * * * //

dimensions      [0 0 0 0 0 0 0];

internalField   nonuniform List<scalar> 
84
(
201.943
201.981
202.021
202.05
202.082
202.114
202.148
202.146
199.993
199.988
200
199.999
199.999
199.999
199.999
199.999
199.986
199.989
200
199.999
199.999
199.999
199.999
199.999
199.993
199.988
200
199.999
199.999
199.999
199.999
199.994
199.989
200.001
200
200
200
200.001
200.331
200.342
200.357
200.361
200.365
200.37
200.37
201.744
201.799
201.834
201.861
201.89
201.919
201.917
203.026
203.19
203.221
203.272
203.323
203.376
203.373
208.086
208.787
208.905
209.052
209.203
209.192
196.606
196.517
196.478
196.42
196.362
196.366
199.156
199.165
199.162
199.148
199.134
199.135
199.947
199.638
199.655
199.648
199.643
199.637
199.637
)
;

boundaryField
{
    inlet
    {
        type            calculated;
        value           nonuniform List<scalar> 0();
    }
    outlet2
    {
        type            calculated;
        value           uniform 0;
    }
    outlet1
    {
        type            calculated;
        value           uniform 0;
    }
    wall
    {
        type            calculated;
        value           uniform 0;
    }
    symmetryBottom
    {
        type            symmetry;
    }
    symmetryZ0
    {
        type            symmetry;
    }
    symmetryZ05
    {
        type            symmetry;
    }
    procBoundary0to1
    {
        type            processor;
        value           uniform 0;
    }
}


// ************************************************************************* //
