/*--------------------------------*- C++ -*----------------------------------*\
| =========                 |                                                 |
| \\      /  F ield         | OpenFOAM: The Open Source CFD Toolbox           |
|  \\    /   O peration     | Version:  2412                                  |
|   \\  /    A nd           | Website:  www.openfoam.com                      |
|    \\/     M anipulation  |                                                 |
\*---------------------------------------------------------------------------*/
FoamFile
{
    version     2.0;
    format      ascii;
    arch        "LSB;label=32;scalar=64";
    class       volScalarField;
    location    "5e-07";
    object      rho_dof0;
}
// * * * * * * * * * * * * * * * * * * * * * * * * * * * * * * * * * * * * * //

dimensions      [0 0 0 0 0 0 0];

internalField   nonuniform List<scalar> 
84
(
2.81085e-05
2.59206e-05
2.59554e-05
2.81086e-05
2.59211e-05
2.59559e-05
2.81086e-05
2.5921e-05
2.59558e-05
2.81086e-05
2.5921e-05
2.59558e-05
2.81086e-05
2.5921e-05
2.59558e-05
2.81086e-05
2.5921e-05
2.59558e-05
2.81086e-05
2.5921e-05
2.59558e-05
2.81086e-05
2.5921e-05
2.59558e-05
2.81086e-05
2.5921e-05
2.59558e-05
2.81086e-05
2.5921e-05
2.59558e-05
2.81086e-05
2.5921e-05
2.59558e-05
2.81086e-05
2.59209e-05
2.59557e-05
2.72256e-05
2.72172e-05
2.72297e-05
2.73462e-05
2.73387e-05
2.73512e-05
2.73339e-05
2.73262e-05
2.73388e-05
2.73215e-05
2.73138e-05
2.73153e-05
2.72141e-05
2.73092e-05
2.73014e-05
2.73027e-05
2.73153e-05
2.72969e-05
2.7289e-05
2.72901e-05
2.73027e-05
2.72846e-05
2.72766e-05
2.72775e-05
2.72901e-05
2.72723e-05
2.72642e-05
2.72649e-05
2.72775e-05
2.72599e-05
2.72518e-05
2.72523e-05
2.72529e-05
2.72144e-05
2.72477e-05
2.72394e-05
2.72398e-05
2.72402e-05
2.7253e-05
2.72354e-05
2.7227e-05
2.72272e-05
2.72274e-05
2.72404e-05
2.72231e-05
2.72146e-05
2.72146e-05
2.72273e-05
)
;

boundaryField
{
    inlet
    {
        type            calculated;
        value           uniform 2.81085e-05;
    }
    outlet2
    {
        type            calculated;
        value           uniform 2.81085e-05;
    }
    outlet1
    {
        type            calculated;
        value           nonuniform List<scalar> 0();
    }
    wall
    {
        type            calculated;
        value           uniform 2.81085e-05;
    }
    symmetryBottom
    {
        type            symmetry;
    }
    symmetryZ0
    {
        type            symmetry;
    }
    symmetryZ05
    {
        type            symmetry;
    }
    procBoundary1to0
    {
        type            processor;
        value           uniform 2.81085e-05;
    }
}


// ************************************************************************* //
