/*--------------------------------*- C++ -*----------------------------------*\
| =========                 |                                                 |
| \\      /  F ield         | OpenFOAM: The Open Source CFD Toolbox           |
|  \\    /   O peration     | Version:  2412                                  |
|   \\  /    A nd           | Website:  www.openfoam.com                      |
|    \\/     M anipulation  |                                                 |
\*---------------------------------------------------------------------------*/
FoamFile
{
    version     2.0;
    format      ascii;
    arch        "LSB;label=32;scalar=64";
    class       volScalarField;
    location    "5e-07";
    object      T;
}
// * * * * * * * * * * * * * * * * * * * * * * * * * * * * * * * * * * * * * //

dimensions      [0 0 0 0 0 0 0];

internalField   nonuniform List<scalar> 
84
(
200.001
200
200.001
200
199.998
200
200
199.998
200
200
199.998
200
200
199.998
200
200
199.998
200
200
199.998
200
200
199.998
200
200
199.998
200
200
199.998
200
200
199.998
200
200
199.998
199.999
200.296
200.298
200.298
200.001
200
200
200.001
200
200
200.001
200
200
200.001
200.001
200
200
200
200.059
200.06
200.06
200.06
200.266
200.267
200.271
200.271
200.459
200.463
200.469
200.469
201.196
201.205
201.222
201.24
199.993
199.513
199.509
199.502
199.494
199.493
199.885
199.884
199.882
199.88
199.881
199.952
199.952
199.951
199.951
)
;

boundaryField
{
    inlet
    {
        type            calculated;
        value           uniform 0;
    }
    outlet2
    {
        type            calculated;
        value           uniform 0;
    }
    outlet1
    {
        type            calculated;
        value           nonuniform List<scalar> 0();
    }
    wall
    {
        type            calculated;
        value           uniform 0;
    }
    symmetryBottom
    {
        type            symmetry;
    }
    symmetryZ0
    {
        type            symmetry;
    }
    symmetryZ05
    {
        type            symmetry;
    }
    procBoundary1to0
    {
        type            processor;
        value           uniform 0;
    }
}


// ************************************************************************* //
