/*--------------------------------*- C++ -*----------------------------------*\
| =========                 |                                                 |
| \\      /  F ield         | OpenFOAM: The Open Source CFD Toolbox           |
|  \\    /   O peration     | Version:  2412                                  |
|   \\  /    A nd           | Website:  www.openfoam.com                      |
|    \\/     M anipulation  |                                                 |
\*---------------------------------------------------------------------------*/
FoamFile
{
    version     2.0;
    format      ascii;
    arch        "LSB;label=32;scalar=64";
    class       volScalarField;
    location    "8.4e-06";
    object      E_dof0;
}
// * * * * * * * * * * * * * * * * * * * * * * * * * * * * * * * * * * * * * //

dimensions      [0 0 0 0 0 0 0];

internalField   nonuniform List<scalar> 
84
(
115.788
12.6422
20.856
115.822
12.7107
20.2641
115.843
12.7066
20.3415
115.844
12.6987
20.4187
115.844
12.6909
20.4957
115.845
12.6831
20.5723
115.846
12.6753
20.6486
115.846
12.6676
20.7244
115.847
12.6599
20.7998
115.848
12.6522
20.8749
115.848
12.6445
20.9496
115.849
12.6368
21.0238
61.4403
58.2766
56.0194
65.4127
61.925
59.5162
64.9557
61.5048
59.1527
64.4445
60.922
61.6065
53.5271
63.9332
60.4688
60.7913
58.2006
63.4262
60.0049
60.3112
57.8062
62.9231
59.5443
59.8399
57.3574
62.4238
59.0873
59.3715
56.9285
61.9282
58.6362
58.8111
59.0771
54.1639
61.4365
58.1857
58.3584
58.4583
56.0278
60.9485
57.7389
57.9029
57.9905
55.641
60.4645
57.2936
57.5352
55.2186
)
;

boundaryField
{
    inlet
    {
        type            calculated;
        value           uniform 99.4306;
    }
    outlet2
    {
        type            calculated;
        value           uniform 99.4306;
    }
    outlet1
    {
        type            calculated;
        value           nonuniform List<scalar> 0();
    }
    wall
    {
        type            calculated;
        value           uniform 99.4306;
    }
    symmetryBottom
    {
        type            symmetry;
    }
    symmetryZ0
    {
        type            symmetry;
    }
    symmetryZ05
    {
        type            symmetry;
    }
    procBoundary1to0
    {
        type            processor;
        value           uniform 99.4306;
    }
}


// ************************************************************************* //
