/*--------------------------------*- C++ -*----------------------------------*\
| =========                 |                                                 |
| \\      /  F ield         | OpenFOAM: The Open Source CFD Toolbox           |
|  \\    /   O peration     | Version:  2412                                  |
|   \\  /    A nd           | Website:  www.openfoam.com                      |
|    \\/     M anipulation  |                                                 |
\*---------------------------------------------------------------------------*/
FoamFile
{
    version     2.0;
    format      ascii;
    arch        "LSB;label=32;scalar=64";
    class       volScalarField;
    location    "8.4e-06";
    object      rho_dof0;
}
// * * * * * * * * * * * * * * * * * * * * * * * * * * * * * * * * * * * * * //

dimensions      [0 0 0 0 0 0 0];

internalField   nonuniform List<scalar> 
84
(
3.26398e-05
3.75683e-06
6.02858e-06
3.26494e-05
3.7758e-06
5.86396e-06
3.26551e-05
3.77474e-06
5.88552e-06
3.26553e-05
3.77258e-06
5.90694e-06
3.26555e-05
3.77043e-06
5.92832e-06
3.26557e-05
3.76829e-06
5.94958e-06
3.26559e-05
3.76616e-06
5.97074e-06
3.2656e-05
3.76403e-06
5.9918e-06
3.26562e-05
3.76191e-06
6.01275e-06
3.26564e-05
3.7598e-06
6.03359e-06
3.26566e-05
3.75769e-06
6.05433e-06
3.26569e-05
3.75556e-06
6.07495e-06
1.74582e-05
1.65789e-05
1.59558e-05
1.85725e-05
1.76036e-05
1.6939e-05
1.84442e-05
1.74855e-05
1.68363e-05
1.83008e-05
1.73226e-05
1.75116e-05
1.52588e-05
1.81573e-05
1.71952e-05
1.72838e-05
1.6569e-05
1.80151e-05
1.70648e-05
1.7149e-05
1.64579e-05
1.78739e-05
1.69354e-05
1.70165e-05
1.63316e-05
1.77337e-05
1.68069e-05
1.68849e-05
1.62108e-05
1.75947e-05
1.66801e-05
1.67282e-05
1.68016e-05
1.54351e-05
1.74566e-05
1.65534e-05
1.66009e-05
1.66283e-05
1.59575e-05
1.73196e-05
1.64278e-05
1.64729e-05
1.64968e-05
1.58484e-05
1.71838e-05
1.63026e-05
1.63688e-05
1.57294e-05
)
;

boundaryField
{
    inlet
    {
        type            calculated;
        value           uniform 2.81085e-05;
    }
    outlet2
    {
        type            calculated;
        value           uniform 2.81085e-05;
    }
    outlet1
    {
        type            calculated;
        value           nonuniform List<scalar> 0();
    }
    wall
    {
        type            calculated;
        value           uniform 2.81085e-05;
    }
    symmetryBottom
    {
        type            symmetry;
    }
    symmetryZ0
    {
        type            symmetry;
    }
    symmetryZ05
    {
        type            symmetry;
    }
    procBoundary1to0
    {
        type            processor;
        value           uniform 2.81085e-05;
    }
}


// ************************************************************************* //
