/*--------------------------------*- C++ -*----------------------------------*\
| =========                 |                                                 |
| \\      /  F ield         | OpenFOAM: The Open Source CFD Toolbox           |
|  \\    /   O peration     | Version:  2412                                  |
|   \\  /    A nd           | Website:  www.openfoam.com                      |
|    \\/     M anipulation  |                                                 |
\*---------------------------------------------------------------------------*/
FoamFile
{
    version     2.0;
    format      ascii;
    arch        "LSB;label=32;scalar=64";
    class       volScalarField;
    location    "8.4e-06";
    object      T;
}
// * * * * * * * * * * * * * * * * * * * * * * * * * * * * * * * * * * * * * //

dimensions      [0 0 0 0 0 0 0];

internalField   nonuniform List<scalar> 
84
(
200.059
194.575
198.265
200.024
194.373
199.432
200.046
194.396
199.489
200.046
194.383
199.505
200.046
194.37
199.522
200.046
194.358
199.538
200.046
194.345
199.554
200.046
194.333
199.57
200.046
194.32
199.585
200.046
194.308
199.6
200.047
194.295
199.615
200.047
194.285
199.63
203.217
203.086
203.009
200.035
199.998
199.931
200.03
199.995
199.934
200.031
199.989
199.997
199.85
200.03
199.989
200.006
199.89
200.03
199.99
200.003
199.927
200.03
199.99
200.003
199.928
200.03
199.99
200.002
199.932
200.03
199.99
199.997
199.992
199.872
200.03
199.99
199.996
200.005
199.889
200.03
199.99
199.996
200.005
199.875
200.03
199.99
200.003
199.92
)
;

boundaryField
{
    inlet
    {
        type            calculated;
        value           uniform 0;
    }
    outlet2
    {
        type            calculated;
        value           uniform 0;
    }
    outlet1
    {
        type            calculated;
        value           nonuniform List<scalar> 0();
    }
    wall
    {
        type            calculated;
        value           uniform 0;
    }
    symmetryBottom
    {
        type            symmetry;
    }
    symmetryZ0
    {
        type            symmetry;
    }
    symmetryZ05
    {
        type            symmetry;
    }
    procBoundary1to0
    {
        type            processor;
        value           uniform 0;
    }
}


// ************************************************************************* //
