/*--------------------------------*- C++ -*----------------------------------*\
| =========                 |                                                 |
| \\      /  F ield         | OpenFOAM: The Open Source CFD Toolbox           |
|  \\    /   O peration     | Version:  2412                                  |
|   \\  /    A nd           | Website:  www.openfoam.com                      |
|    \\/     M anipulation  |                                                 |
\*---------------------------------------------------------------------------*/
FoamFile
{
    version     2.0;
    format      ascii;
    arch        "LSB;label=32;scalar=64";
    class       volVectorField;
    location    "5.7e-06";
    object      rhoU_dof0;
}
// * * * * * * * * * * * * * * * * * * * * * * * * * * * * * * * * * * * * * //

dimensions      [0 0 0 0 0 0 0];

internalField   nonuniform List<vector> 
84
(
(0.0724982 0.000161078 1.61748e-19)
(0.0492444 0.000111739 -1.57406e-19)
(0.0514036 0.000118141 -2.83528e-19)
(0.0512745 0.000119568 1.73546e-19)
(0.0512832 0.000121349 -2.19574e-20)
(0.0512859 0.00012317 2.15925e-20)
(0.0512889 0.000125046 2.68294e-19)
(0.0516192 0.00012566 3.80537e-20)
(0.0763478 -0.000173497 1.6321e-19)
(0.0519228 -0.000122152 -1.58688e-19)
(0.0542331 -0.000128744 -3.62518e-19)
(0.0541406 -0.000130526 4.19458e-20)
(0.0541941 -0.000132646 -6.81475e-19)
(0.0542427 -0.000134824 1.54131e-19)
(0.0542931 -0.000137075 5.50096e-19)
(0.0546378 -0.000137707 1.12304e-19)
(0.0756321 -0.000156722 -6.6401e-19)
(0.0519383 -0.000135814 1.26255e-19)
(0.0538999 -0.000126428 2.1303e-19)
(0.0538403 -0.000129933 -2.29764e-20)
(0.0538865 -0.000131919 -9.10578e-21)
(0.0539301 -0.000134079 2.66454e-19)
(0.0539753 -0.000136305 -2.33063e-19)
(0.0543186 -0.000136934 -2.56225e-19)
(0.0753366 -0.000162174 -6.40757e-19)
(0.0514054 -0.000123284 3.01974e-19)
(0.0536738 -0.000129387 -3.16828e-20)
(0.0535746 -0.000131195 -6.15034e-19)
(0.0536196 -0.000133338 6.07543e-19)
(0.0536594 -0.00013554 1.01965e-19)
(0.0540012 -0.000136167 -2.3368e-19)
(0.0751907 -0.000173762 -4.07336e-19)
(0.0511049 -0.000121906 -1.06116e-19)
(0.053374 -0.000128765 1.12127e-20)
(0.05327 -0.000130517 3.42179e-21)
(0.05331 -0.000132641 -2.18832e-19)
(0.0533447 -0.00013482 1.77373e-19)
(0.053685 -0.000135445 3.82265e-19)
(0.0747828 -0.000166859 -2.43318e-19)
(0.0508204 -0.000116857 3.2419e-19)
(0.0530731 -0.000123505 -3.32476e-20)
(0.052965 -0.00012521 3.87777e-19)
(0.053 -0.000127277 -3.5697e-19)
(0.0530296 -0.000129398 3.0174e-19)
(0.0533684 -0.000129999 -6.5546e-19)
(0.0743715 -0.0001336 -8.59933e-23)
(0.0505361 -9.37065e-05 3.03592e-19)
(0.0527708 -9.89031e-05 -3.21243e-20)
(0.0526588 -0.000100272 8.47558e-22)
(0.0526887 -0.000101914 3.19377e-19)
(0.0527132 -0.000103601 4.12848e-20)
(0.0530505 -0.000104084 3.1768e-19)
(0.0738061 -9.97701e-05 5.652e-21)
(0.0504222 -9.06671e-05 4.1572e-21)
(0.0524564 -8.25391e-05 -1.67352e-21)
(0.0523608 -8.5087e-05 -4.25212e-21)
(0.0523847 -8.64005e-05 -8.83079e-22)
(0.0524042 -8.78451e-05 1.94824e-21)
(0.0527401 -8.82546e-05 -2.62652e-19)
(0.0734289 -9.47729e-05 8.66388e-19)
(0.0499832 -7.16902e-05 -7.88973e-20)
(0.0521771 -7.53293e-05 -6.70294e-19)
(0.0520575 -7.63684e-05 -2.12078e-19)
(0.0520777 -7.76116e-05 3.67534e-19)
(0.0524119 -7.79783e-05 -4.0283e-20)
(0.0732097 -9.93928e-05 -3.07783e-19)
(0.049725 -6.93278e-05 2.82688e-20)
(0.0519148 -7.32663e-05 -3.08814e-19)
(0.0517917 -7.421e-05 3.41582e-19)
(0.0518082 -7.5369e-05 5.71831e-19)
(0.0521409 -7.57309e-05 -6.04563e-20)
(0.0727168 -0.000104904 -4.28409e-19)
(0.0494452 -7.92744e-05 3.87273e-20)
(0.0516077 -8.27916e-05 -1.57365e-21)
(0.051481 -8.39359e-05 6.01656e-19)
(0.0514922 -8.526e-05 6.20272e-19)
(0.0518235 -8.56676e-05 2.31239e-20)
(0.0719564 -1.4683e-05 -2.98306e-20)
(0.0492556 -0.000106537 1.92158e-21)
(0.0513099 -9.61845e-05 -8.74775e-23)
(0.0511885 -9.85994e-05 3.62654e-19)
(0.0511946 -0.000100058 -3.78505e-20)
(0.0511951 -0.000101619 2.42355e-21)
(0.0515252 -0.00010211 -3.05571e-19)
)
;

boundaryField
{
    inlet
    {
        type            calculated;
        value           nonuniform List<vector> 0();
    }
    outlet2
    {
        type            calculated;
        value           uniform (0.0741049 0 0);
    }
    outlet1
    {
        type            calculated;
        value           uniform (0.0741049 0 0);
    }
    wall
    {
        type            calculated;
        value           uniform (0.0741049 0 0);
    }
    symmetryBottom
    {
        type            symmetry;
    }
    symmetryZ0
    {
        type            symmetry;
    }
    symmetryZ05
    {
        type            symmetry;
    }
    procBoundary0to1
    {
        type            processor;
        value           uniform (0.0741049 0 0);
    }
}


// ************************************************************************* //
