/*--------------------------------*- C++ -*----------------------------------*\
| =========                 |                                                 |
| \\      /  F ield         | OpenFOAM: The Open Source CFD Toolbox           |
|  \\    /   O peration     | Version:  2412                                  |
|   \\  /    A nd           | Website:  www.openfoam.com                      |
|    \\/     M anipulation  |                                                 |
\*---------------------------------------------------------------------------*/
FoamFile
{
    version     2.0;
    format      ascii;
    arch        "LSB;label=32;scalar=64";
    class       volScalarField;
    location    "5.7e-06";
    object      T;
}
// * * * * * * * * * * * * * * * * * * * * * * * * * * * * * * * * * * * * * //

dimensions      [0 0 0 0 0 0 0];

internalField   nonuniform List<scalar> 
84
(
203.462
203.513
203.613
203.661
203.718
203.776
203.837
203.831
199.98
199.956
200.004
199.997
199.998
199.998
199.998
199.998
199.961
199.957
200.003
199.997
199.998
199.998
199.997
199.998
199.985
199.954
200.004
199.997
199.998
199.997
199.998
199.986
199.958
200.009
200.002
200.002
200.002
200.003
200.494
200.502
200.552
200.55
200.556
200.561
200.56
203.083
203.178
203.26
203.303
203.354
203.406
203.401
205.377
205.779
205.801
205.897
205.99
206.087
206.076
214.708
216.738
216.857
217.16
217.467
217.429
193.8
193.645
193.604
193.491
193.384
193.396
198.416
198.462
198.474
198.443
198.417
198.421
199.851
199.298
199.374
199.356
199.346
199.335
199.337
)
;

boundaryField
{
    inlet
    {
        type            calculated;
        value           nonuniform List<scalar> 0();
    }
    outlet2
    {
        type            calculated;
        value           uniform 0;
    }
    outlet1
    {
        type            calculated;
        value           uniform 0;
    }
    wall
    {
        type            calculated;
        value           uniform 0;
    }
    symmetryBottom
    {
        type            symmetry;
    }
    symmetryZ0
    {
        type            symmetry;
    }
    symmetryZ05
    {
        type            symmetry;
    }
    procBoundary0to1
    {
        type            processor;
        value           uniform 0;
    }
}


// ************************************************************************* //
