/*--------------------------------*- C++ -*----------------------------------*\
| =========                 |                                                 |
| \\      /  F ield         | OpenFOAM: The Open Source CFD Toolbox           |
|  \\    /   O peration     | Version:  2412                                  |
|   \\  /    A nd           | Website:  www.openfoam.com                      |
|    \\/     M anipulation  |                                                 |
\*---------------------------------------------------------------------------*/
FoamFile
{
    version     2.0;
    format      ascii;
    arch        "LSB;label=32;scalar=64";
    class       volVectorField;
    location    "5.7e-06";
    object      U;
}
// * * * * * * * * * * * * * * * * * * * * * * * * * * * * * * * * * * * * * //

dimensions      [0 0 0 0 0 0 0];

internalField   nonuniform List<vector> 
84
(
(2634.57 5.85356 5.87789e-15)
(2628.04 5.96321 -8.40033e-15)
(2629.53 6.04344 -1.45037e-14)
(2629.38 6.13152 8.89954e-15)
(2629.37 6.22177 -1.12579e-15)
(2629.35 6.31473 1.10702e-15)
(2629.34 6.4105 1.37542e-14)
(2629.45 6.40104 1.93843e-15)
(2636.47 -5.99126 5.63602e-15)
(2630.05 -6.18737 -8.03802e-15)
(2631.54 -6.24704 -1.75904e-14)
(2631.43 -6.34406 2.03872e-15)
(2631.45 -6.44078 -3.30897e-14)
(2631.47 -6.54071 7.47735e-15)
(2631.48 -6.64377 2.66621e-14)
(2631.59 -6.63254 5.40905e-15)
(2636.28 -5.46278 -2.31451e-14)
(2630.17 -6.87765 6.39362e-15)
(2631.43 -6.17229 1.04003e-14)
(2631.35 -6.35025 -1.12293e-15)
(2631.36 -6.44182 -4.44649e-16)
(2631.38 -6.54202 1.30009e-14)
(2631.39 -6.64512 -1.13622e-14)
(2631.5 -6.63388 -1.2413e-14)
(2636.22 -5.67486 -2.24217e-14)
(2629.9 -6.30722 1.5449e-14)
(2631.38 -6.34327 -1.55326e-15)
(2631.27 -6.4435 -3.02068e-14)
(2631.28 -6.54334 2.98141e-14)
(2631.3 -6.6465 5.00004e-15)
(2631.4 -6.63525 -1.13869e-14)
(2636.23 -6.0922 -1.42814e-14)
(2629.8 -6.27315 -5.46062e-15)
(2631.29 -6.34799 5.52776e-16)
(2631.18 -6.44666 1.69013e-16)
(2631.19 -6.54667 -1.08008e-14)
(2631.2 -6.64993 8.74882e-15)
(2631.31 -6.63866 1.87363e-14)
(2636.12 -5.88185 -8.57706e-15)
(2629.68 -6.04672 1.67751e-14)
(2631.17 -6.12294 -1.6483e-15)
(2631.05 -6.21987 1.92629e-14)
(2631.07 -6.31837 -1.7721e-14)
(2631.08 -6.42013 1.49709e-14)
(2631.19 -6.40928 -3.23157e-14)
(2635.94 -4.73518 -3.04785e-18)
(2629.45 -4.87565 1.57962e-14)
(2630.95 -4.93093 -1.60159e-15)
(2630.83 -5.00957 4.23439e-17)
(2630.84 -5.08874 1.5947e-14)
(2630.84 -5.17057 2.06047e-15)
(2630.95 -5.16189 1.57548e-14)
(2635.78 -3.56301 2.01845e-16)
(2629.38 -4.72803 2.16787e-16)
(2630.78 -4.13948 -8.39301e-17)
(2630.67 -4.27487 -2.13632e-16)
(2630.68 -4.3389 -4.43469e-17)
(2630.68 -4.4098 9.78011e-17)
(2630.79 -4.40233 -1.31017e-14)
(2635.61 -3.40172 3.10976e-14)
(2629.05 -3.77081 -4.1499e-15)
(2630.57 -3.79781 -3.37936e-14)
(2630.44 -3.85886 -1.07162e-14)
(2630.44 -3.92015 1.85641e-14)
(2630.55 -3.91373 -2.02181e-15)
(2635.71 -3.57836 -1.10809e-14)
(2629.36 -3.66591 1.49479e-15)
(2630.82 -3.71283 -1.56494e-14)
(2630.7 -3.76942 1.73503e-14)
(2630.71 -3.82708 2.90364e-14)
(2630.82 -3.82108 -3.05038e-15)
(2635.66 -3.80231 -1.55279e-14)
(2629.24 -4.2154 2.05932e-15)
(2630.72 -4.22032 -8.02172e-17)
(2630.59 -4.28899 3.07437e-14)
(2630.6 -4.35571 3.16881e-14)
(2630.71 -4.34874 1.17384e-15)
(2635.56 -0.537797 -1.09261e-15)
(2629.2 -5.6868 1.02571e-16)
(2630.66 -4.93138 -4.48497e-18)
(2630.53 -5.06693 1.86365e-14)
(2630.54 -5.14131 -1.94488e-15)
(2630.54 -5.22147 1.24529e-16)
(2630.65 -5.21328 -1.56011e-14)
)
;

boundaryField
{
    inlet
    {
        type            calculated;
        value           nonuniform List<vector> 0();
    }
    outlet2
    {
        type            calculated;
        value           uniform (0 0 0);
    }
    outlet1
    {
        type            calculated;
        value           uniform (0 0 0);
    }
    wall
    {
        type            calculated;
        value           uniform (0 0 0);
    }
    symmetryBottom
    {
        type            symmetry;
    }
    symmetryZ0
    {
        type            symmetry;
    }
    symmetryZ05
    {
        type            symmetry;
    }
    procBoundary0to1
    {
        type            processor;
        value           uniform (0 0 0);
    }
}


// ************************************************************************* //
