/*--------------------------------*- C++ -*----------------------------------*\
| =========                 |                                                 |
| \\      /  F ield         | OpenFOAM: The Open Source CFD Toolbox           |
|  \\    /   O peration     | Version:  2412                                  |
|   \\  /    A nd           | Website:  www.openfoam.com                      |
|    \\/     M anipulation  |                                                 |
\*---------------------------------------------------------------------------*/
FoamFile
{
    version     2.0;
    format      ascii;
    arch        "LSB;label=32;scalar=64";
    class       volVectorField;
    location    "3.8e-06";
    object      U;
}
// * * * * * * * * * * * * * * * * * * * * * * * * * * * * * * * * * * * * * //

dimensions      [0 0 0 0 0 0 0];

internalField   nonuniform List<vector> 
84
(
(2635.33 3.95355 4.01784e-15)
(2631.19 4.02703 -5.11116e-15)
(2631.77 4.08331 -1.06561e-14)
(2631.72 4.14353 5.49145e-15)
(2631.71 4.20543 -4.14903e-16)
(2631.7 4.2692 6.61824e-16)
(2631.69 4.33493 1.01629e-14)
(2631.76 4.33064 1.89331e-15)
(2636.6 -3.99969 4.00221e-15)
(2632.52 -4.11496 -4.90651e-15)
(2633.11 -4.16594 -1.25189e-14)
(2633.09 -4.22924 9.68513e-16)
(2633.1 -4.29382 -2.29742e-14)
(2633.11 -4.36044 4.05229e-15)
(2633.12 -4.42915 1.84535e-14)
(2633.19 -4.42406 3.7551e-15)
(2636.49 -3.74885 -1.73852e-14)
(2632.54 -4.38914 3.68772e-15)
(2633.05 -4.1465 6.80956e-15)
(2633.03 -4.23091 -5.02537e-16)
(2633.04 -4.29464 -2.26965e-16)
(2633.05 -4.36131 9.52077e-15)
(2633.06 -4.43004 -7.78945e-15)
(2633.12 -4.42495 -9.40637e-15)
(2636.45 -3.863 -1.69736e-14)
(2632.42 -4.18496 1.0287e-14)
(2633 -4.23019 -6.99483e-16)
(2632.98 -4.29554 -2.07342e-14)
(2632.99 -4.36218 1.97452e-14)
(2632.99 -4.43095 3.9274e-15)
(2633.06 -4.42585 -7.79923e-15)
(2636.44 -4.06362 -9.92901e-15)
(2632.35 -4.17633 -3.90258e-15)
(2632.94 -4.23209 2.59417e-16)
(2632.92 -4.2972 7.91272e-17)
(2632.92 -4.3639 -7.19332e-15)
(2632.93 -4.43272 5.56423e-15)
(2633 -4.42763 1.32006e-14)
(2636.37 -3.89781 -6.11293e-15)
(2632.27 -4.00132 1.1463e-14)
(2632.86 -4.05618 -7.36627e-16)
(2632.83 -4.11936 1.35666e-14)
(2632.84 -4.18416 -1.21917e-14)
(2632.85 -4.25104 1.04908e-14)
(2632.92 -4.2462 -2.23746e-14)
(2636.25 -3.14171 -1.56962e-18)
(2632.13 -3.22561 1.12865e-14)
(2632.72 -3.26855 -7.25988e-16)
(2632.69 -3.31952 -9.16511e-18)
(2632.7 -3.37169 1.14469e-14)
(2632.7 -3.42554 1.63582e-15)
(2632.77 -3.42168 1.14514e-14)
(2636.15 -2.44868 9.27785e-17)
(2632.07 -2.9596 8.30045e-17)
(2632.62 -2.75692 -4.41659e-17)
(2632.6 -2.81776 -9.4925e-17)
(2632.6 -2.86168 -1.86777e-17)
(2632.6 -2.90778 3.66949e-17)
(2632.67 -2.90451 -1.00618e-14)
(2636.06 -2.31508 2.14806e-14)
(2631.92 -2.49812 -1.6844e-15)
(2632.51 -2.52757 -2.32433e-14)
(2632.48 -2.56735 -8.59356e-15)
(2632.48 -2.60806 1.28057e-14)
(2632.55 -2.60521 -5.37134e-16)
(2636.09 -2.40967 -7.78516e-15)
(2632.03 -2.46509 6.03405e-16)
(2632.61 -2.49946 -1.11108e-14)
(2632.58 -2.53771 1.19083e-14)
(2632.58 -2.577 2.02165e-14)
(2632.65 -2.57427 -1.45454e-15)
(2636.06 -2.60309 -1.06876e-14)
(2631.97 -2.79922 8.12725e-16)
(2632.56 -2.82596 -1.43592e-17)
(2632.52 -2.87023 2.08576e-14)
(2632.53 -2.91516 2.19854e-14)
(2632.6 -2.91204 1.12067e-15)
(2636 -0.256123 -5.56545e-16)
(2631.94 -3.60708 2.85418e-17)
(2632.52 -3.32534 -8.06915e-19)
(2632.49 -3.39225 1.30881e-14)
(2632.49 -3.44391 -8.75844e-16)
(2632.49 -3.49779 3.58218e-17)
(2632.56 -3.49415 -1.15524e-14)
)
;

boundaryField
{
    inlet
    {
        type            calculated;
        value           nonuniform List<vector> 0();
    }
    outlet2
    {
        type            calculated;
        value           uniform (0 0 0);
    }
    outlet1
    {
        type            calculated;
        value           uniform (0 0 0);
    }
    wall
    {
        type            calculated;
        value           uniform (0 0 0);
    }
    symmetryBottom
    {
        type            symmetry;
    }
    symmetryZ0
    {
        type            symmetry;
    }
    symmetryZ05
    {
        type            symmetry;
    }
    procBoundary0to1
    {
        type            processor;
        value           uniform (0 0 0);
    }
}


// ************************************************************************* //
