/*--------------------------------*- C++ -*----------------------------------*\
| =========                 |                                                 |
| \\      /  F ield         | OpenFOAM: The Open Source CFD Toolbox           |
|  \\    /   O peration     | Version:  2412                                  |
|   \\  /    A nd           | Website:  www.openfoam.com                      |
|    \\/     M anipulation  |                                                 |
\*---------------------------------------------------------------------------*/
FoamFile
{
    version     2.0;
    format      ascii;
    arch        "LSB;label=32;scalar=64";
    class       volScalarField;
    location    "9.4e-06";
    object      E_dof0;
}
// * * * * * * * * * * * * * * * * * * * * * * * * * * * * * * * * * * * * * //

dimensions      [0 0 0 0 0 0 0];

internalField   nonuniform List<scalar> 
84
(
119.367
6.41688
16.5767
119.409
6.50436
15.8722
119.435
6.49714
15.9629
119.436
6.48666
16.0547
119.437
6.47621
16.1464
119.438
6.4658
16.2376
119.439
6.45544
16.3282
119.44
6.44512
16.4183
119.441
6.43484
16.5079
119.442
6.42461
16.597
119.443
6.41438
16.6856
119.445
6.40407
16.7736
58.3892
54.6901
51.8508
62.633
58.5255
55.4761
62.15
58.0877
55.118
61.6035
57.4305
58.2977
49.0474
61.0552
56.9574
57.3862
54.1005
60.5122
56.4693
56.8779
53.7007
59.9739
55.9849
56.3807
53.2351
59.4401
55.5047
55.8868
52.7965
58.9108
55.0328
55.259
55.5985
49.8267
58.3862
54.5603
54.7854
54.9244
51.8536
57.8659
54.0921
54.3074
54.4315
51.465
57.3506
53.6245
53.9559
51.0335
)
;

boundaryField
{
    inlet
    {
        type            calculated;
        value           uniform 99.4306;
    }
    outlet2
    {
        type            calculated;
        value           uniform 99.4306;
    }
    outlet1
    {
        type            calculated;
        value           nonuniform List<scalar> 0();
    }
    wall
    {
        type            calculated;
        value           uniform 99.4306;
    }
    symmetryBottom
    {
        type            symmetry;
    }
    symmetryZ0
    {
        type            symmetry;
    }
    symmetryZ05
    {
        type            symmetry;
    }
    procBoundary1to0
    {
        type            processor;
        value           uniform 99.4306;
    }
}


// ************************************************************************* //
