/*--------------------------------*- C++ -*----------------------------------*\
| =========                 |                                                 |
| \\      /  F ield         | OpenFOAM: The Open Source CFD Toolbox           |
|  \\    /   O peration     | Version:  2412                                  |
|   \\  /    A nd           | Website:  www.openfoam.com                      |
|    \\/     M anipulation  |                                                 |
\*---------------------------------------------------------------------------*/
FoamFile
{
    version     2.0;
    format      ascii;
    arch        "LSB;label=32;scalar=64";
    class       volVectorField;
    location    "9.4e-06";
    object      rhoU_dof0;
}
// * * * * * * * * * * * * * * * * * * * * * * * * * * * * * * * * * * * * * //

dimensions      [0 0 0 0 0 0 0];

internalField   nonuniform List<vector> 
84
(
(0.0888185 1.95567e-07 -3.83884e-21)
(0.00502534 -4.55386e-07 2.58059e-20)
(0.0125183 1.52391e-07 -1.22979e-19)
(0.0888494 -0.000266223 -4.06313e-21)
(0.00509003 -2.59297e-05 2.72038e-20)
(0.011996 -4.48723e-05 -1.28826e-19)
(0.0888685 -0.000266281 5.33893e-21)
(0.0050848 -2.59648e-05 -3.56815e-20)
(0.0120631 -4.46315e-05 1.67833e-19)
(0.0888693 -0.000266292 -6.97194e-21)
(0.0050771 -2.59401e-05 4.66191e-20)
(0.0121309 -4.48628e-05 -2.21856e-19)
(0.08887 -0.000266295 -1.23727e-20)
(0.00506942 -2.59139e-05 8.19926e-20)
(0.0121987 -4.50988e-05 -3.81136e-19)
(0.0888708 -0.000266297 6.77653e-21)
(0.00506177 -2.58878e-05 -4.49764e-20)
(0.0122661 -4.53322e-05 2.111e-19)
(0.0888715 -0.0002663 -9.08306e-21)
(0.00505415 -2.58619e-05 6.06118e-20)
(0.012333 -4.55642e-05 -2.84704e-19)
(0.0888722 -0.000266302 -1.05411e-20)
(0.00504656 -2.5836e-05 7.02995e-20)
(0.0123996 -4.5795e-05 -3.31968e-19)
(0.088873 -0.000266305 3.92083e-21)
(0.00503901 -2.58103e-05 -2.60461e-20)
(0.0124658 -4.60245e-05 1.21689e-19)
(0.0888737 -0.000266307 -8.97445e-21)
(0.00503149 -2.57847e-05 6.05336e-20)
(0.0125317 -4.62526e-05 -2.89897e-19)
(0.0888745 -0.00026631 -2.32428e-20)
(0.00502397 -2.5759e-05 1.55956e-19)
(0.0125971 -4.64795e-05 -7.39681e-19)
(0.0888756 -0.000266547 8.21572e-24)
(0.00501639 -2.53335e-05 -1.54603e-22)
(0.0126622 -4.64017e-05 2.25256e-21)
(0.0436302 -3.15215e-06 -2.34792e-21)
(0.0408956 -2.98365e-06 1.93771e-19)
(0.0388038 -2.86484e-06 -2.59985e-20)
(0.0467886 -0.000167303 -1.79989e-21)
(0.0437521 -0.000159431 1.97219e-19)
(0.0415056 -0.0001506 -3.01957e-20)
(0.0464297 -0.000169102 -1.14677e-20)
(0.0434265 -0.000161009 -6.71787e-20)
(0.0412385 -0.000154209 -2.78421e-19)
(0.0460237 -0.000167724 2.23281e-20)
(0.0429398 -0.000158496 -3.72367e-21)
(0.0435785 -0.000177534 -2.89241e-20)
(0.0367314 5.0305e-05 3.82735e-19)
(0.0456165 -0.000166253 -5.07062e-20)
(0.0425879 -0.000157847 2.22175e-21)
(0.0429031 -0.000161814 -2.80128e-20)
(0.0404826 -0.000148128 3.36071e-19)
(0.0452132 -0.000164815 -7.27126e-21)
(0.042225 -0.000156548 -1.93158e-19)
(0.0425252 -0.00016008 -7.28742e-21)
(0.0401848 -0.000150579 2.29143e-19)
(0.0448134 -0.000163391 2.82389e-20)
(0.0418649 -0.000155242 -3.88362e-21)
(0.0421557 -0.000158715 -1.68256e-21)
(0.0398384 -0.000149359 -1.13591e-22)
(0.0444169 -0.000161978 4.98219e-20)
(0.0415079 -0.000153949 -2.10441e-19)
(0.0417885 -0.000157289 2.02649e-19)
(0.0395118 -0.000149817 1.08407e-21)
(0.0440237 -0.000160576 9.97164e-21)
(0.0411569 -0.000152707 -2.6276e-19)
(0.0413233 -0.000154768 -2.77353e-19)
(0.0415734 -0.000172692 1.63072e-19)
(0.0373064 4.92073e-05 1.8159e-18)
(0.0436339 -0.000159187 5.22302e-20)
(0.0408056 -0.00015141 -2.96792e-19)
(0.0409712 -0.000154124 1.80309e-19)
(0.0410732 -0.000157109 4.31132e-19)
(0.0388106 -0.000146189 2.97222e-19)
(0.0432475 -0.000157809 7.65297e-20)
(0.0404574 -0.000150144 -4.75937e-21)
(0.0406158 -0.00015288 1.95028e-23)
(0.0407067 -0.0001543 1.99401e-20)
(0.038521 -0.000163104 -2.39503e-19)
(0.0428646 -0.000156412 -2.2178e-20)
(0.0401098 -0.000148815 2.87216e-19)
(0.040353 -0.000151122 1.3612e-20)
(0.0381997 -0.000162033 -4.64703e-19)
)
;

boundaryField
{
    inlet
    {
        type            calculated;
        value           uniform (0.0741049 0 0);
    }
    outlet2
    {
        type            calculated;
        value           uniform (0.0741049 0 0);
    }
    outlet1
    {
        type            calculated;
        value           nonuniform List<vector> 0();
    }
    wall
    {
        type            calculated;
        value           uniform (0.0741049 0 0);
    }
    symmetryBottom
    {
        type            symmetry;
    }
    symmetryZ0
    {
        type            symmetry;
    }
    symmetryZ05
    {
        type            symmetry;
    }
    procBoundary1to0
    {
        type            processor;
        value           uniform (0.0741049 0 0);
    }
}


// ************************************************************************* //
