/*--------------------------------*- C++ -*----------------------------------*\
| =========                 |                                                 |
| \\      /  F ield         | OpenFOAM: The Open Source CFD Toolbox           |
|  \\    /   O peration     | Version:  2412                                  |
|   \\  /    A nd           | Website:  www.openfoam.com                      |
|    \\/     M anipulation  |                                                 |
\*---------------------------------------------------------------------------*/
FoamFile
{
    version     2.0;
    format      ascii;
    arch        "LSB;label=32;scalar=64";
    class       volVectorField;
    location    "2.1e-06";
    object      U;
}
// * * * * * * * * * * * * * * * * * * * * * * * * * * * * * * * * * * * * * //

dimensions      [0 0 0 0 0 0 0];

internalField   nonuniform List<vector> 
84
(
(2635.89 2.20984 2.30554e-15)
(2633.67 2.25062 -2.68099e-15)
(2633.82 2.28304 -6.17416e-15)
(2633.81 2.31706 2.819e-15)
(2633.81 2.35209 -7.70586e-17)
(2633.8 2.3882 3.39251e-16)
(2633.79 2.42544 5.75381e-15)
(2633.83 2.42408 1.21154e-15)
(2636.6 -2.21266 2.33198e-15)
(2634.4 -2.27085 -2.52746e-15)
(2634.56 -2.3024 -7.28881e-15)
(2634.56 -2.33711 3.24203e-16)
(2634.57 -2.37281 -1.28492e-14)
(2634.57 -2.40963 1.7682e-15)
(2634.58 -2.4476 1.05308e-14)
(2634.62 -2.44593 2.37627e-15)
(2636.55 -2.13268 -1.03386e-14)
(2634.39 -2.34393 1.72006e-15)
(2634.53 -2.3 3.737e-15)
(2634.53 -2.33762 -1.65487e-16)
(2634.54 -2.37327 -8.52905e-17)
(2634.54 -2.4101 5.24969e-15)
(2634.55 -2.44809 -4.12852e-15)
(2634.58 -2.44642 -5.53511e-15)
(2636.52 -2.18159 -1.04106e-14)
(2634.34 -2.30658 5.42096e-15)
(2634.5 -2.33793 -2.1569e-16)
(2634.5 -2.37374 -1.17688e-14)
(2634.51 -2.41058 1.08857e-14)
(2634.51 -2.44858 2.39175e-15)
(2634.55 -2.44691 -4.03375e-15)
(2636.51 -2.24682 -5.65294e-15)
(2634.31 -2.30564 -2.35945e-15)
(2634.47 -2.33859 8.11696e-17)
(2634.47 -2.37439 2.33772e-17)
(2634.47 -2.41125 -3.77325e-15)
(2634.48 -2.44928 2.89584e-15)
(2634.51 -2.44761 7.89674e-15)
(2636.47 -2.1427 -3.53294e-15)
(2634.26 -2.19715 6.57228e-15)
(2634.43 -2.22888 -2.13364e-16)
(2634.42 -2.26323 7.87208e-15)
(2634.43 -2.29861 -6.87282e-15)
(2634.43 -2.33512 5.81067e-15)
(2634.47 -2.33355 -1.26176e-14)
(2636.4 -1.72861 -5.41407e-19)
(2634.19 -1.77146 6.46723e-15)
(2634.35 -1.79696 -2.11602e-16)
(2634.35 -1.82465 -1.60401e-17)
(2634.35 -1.85317 6.60177e-15)
(2634.35 -1.88259 1.08344e-15)
(2634.39 -1.88135 6.96298e-15)
(2636.35 -1.39447 2.45391e-17)
(2634.15 -1.55569 1.87952e-17)
(2634.3 -1.51678 -2.0957e-17)
(2634.3 -1.54262 -2.89053e-17)
(2634.3 -1.56678 -3.26258e-18)
(2634.3 -1.59176 6.54644e-18)
(2634.34 -1.59074 -5.25383e-15)
(2636.32 -1.30616 1.25938e-14)
(2634.1 -1.37525 -4.60053e-16)
(2634.26 -1.39475 -1.30644e-14)
(2634.25 -1.41652 -5.06108e-15)
(2634.25 -1.43894 6.90489e-15)
(2634.29 -1.43804 -3.7883e-18)
(2636.32 -1.34337 -4.43447e-15)
(2634.12 -1.37272 1.68476e-16)
(2634.28 -1.39287 -6.52849e-15)
(2634.27 -1.41432 6.7894e-15)
(2634.28 -1.43642 1.18368e-14)
(2634.31 -1.43555 -2.96798e-16)
(2636.3 -1.47516 -6.03062e-15)
(2634.1 -1.54628 2.2427e-16)
(2634.26 -1.56739 9.47087e-19)
(2634.25 -1.5917 1.18146e-14)
(2634.25 -1.61672 1.27705e-14)
(2634.29 -1.61573 1.07382e-15)
(2636.26 -0.0824347 -1.7679e-16)
(2634.08 -1.91545 4.21627e-18)
(2634.24 -1.85172 -6.2148e-20)
(2634.23 -1.88236 7.77501e-15)
(2634.23 -1.91143 -2.62951e-16)
(2634.23 -1.94146 5.54214e-18)
(2634.27 -1.94033 -6.83053e-15)
)
;

boundaryField
{
    inlet
    {
        type            calculated;
        value           nonuniform List<vector> 0();
    }
    outlet2
    {
        type            calculated;
        value           uniform (0 0 0);
    }
    outlet1
    {
        type            calculated;
        value           uniform (0 0 0);
    }
    wall
    {
        type            calculated;
        value           uniform (0 0 0);
    }
    symmetryBottom
    {
        type            symmetry;
    }
    symmetryZ0
    {
        type            symmetry;
    }
    symmetryZ05
    {
        type            symmetry;
    }
    procBoundary0to1
    {
        type            processor;
        value           uniform (0 0 0);
    }
}


// ************************************************************************* //
