/*--------------------------------*- C++ -*----------------------------------*\
| =========                 |                                                 |
| \\      /  F ield         | OpenFOAM: The Open Source CFD Toolbox           |
|  \\    /   O peration     | Version:  2412                                  |
|   \\  /    A nd           | Website:  www.openfoam.com                      |
|    \\/     M anipulation  |                                                 |
\*---------------------------------------------------------------------------*/
FoamFile
{
    version     2.0;
    format      ascii;
    arch        "LSB;label=32;scalar=64";
    class       volScalarField;
    location    "6.7e-06";
    object      rho;
}
// * * * * * * * * * * * * * * * * * * * * * * * * * * * * * * * * * * * * * //

dimensions      [0 0 0 0 0 0 0];

internalField   nonuniform List<scalar> 
84
(
2.7287e-05
1.72829e-05
1.8371e-05
1.82944e-05
1.83e-05
1.83014e-05
1.8303e-05
1.84429e-05
2.89672e-05
1.83736e-05
1.95432e-05
1.948e-05
1.95043e-05
1.95247e-05
1.9546e-05
1.9693e-05
2.86318e-05
1.841e-05
1.93968e-05
1.93545e-05
1.9375e-05
1.93934e-05
1.94124e-05
1.95587e-05
2.8505e-05
1.81619e-05
1.9308e-05
1.92424e-05
1.92631e-05
1.92798e-05
1.94253e-05
2.84555e-05
1.80351e-05
1.91823e-05
1.91147e-05
1.91332e-05
1.91478e-05
1.92926e-05
2.82753e-05
1.79179e-05
1.90561e-05
1.8987e-05
1.90034e-05
1.90158e-05
1.91599e-05
2.80943e-05
1.7802e-05
1.89302e-05
1.88597e-05
1.8874e-05
1.88842e-05
1.90276e-05
2.78354e-05
1.7773e-05
1.87957e-05
1.87361e-05
1.87475e-05
1.87557e-05
1.88983e-05
2.76699e-05
1.75768e-05
1.86821e-05
1.86088e-05
1.8619e-05
1.87607e-05
2.75832e-05
1.74677e-05
1.85718e-05
1.84971e-05
1.85058e-05
1.86468e-05
2.73596e-05
1.73541e-05
1.84425e-05
1.83667e-05
1.83731e-05
1.85134e-05
2.70264e-05
1.72842e-05
1.83169e-05
1.82452e-05
1.82492e-05
1.82495e-05
1.83892e-05
)
;

boundaryField
{
    inlet
    {
        type            calculated;
        value           nonuniform List<scalar> 0();
    }
    outlet2
    {
        type            calculated;
        value           uniform 0;
    }
    outlet1
    {
        type            calculated;
        value           uniform 0;
    }
    wall
    {
        type            calculated;
        value           uniform 0;
    }
    symmetryBottom
    {
        type            symmetry;
    }
    symmetryZ0
    {
        type            symmetry;
    }
    symmetryZ05
    {
        type            symmetry;
    }
    procBoundary0to1
    {
        type            processor;
        value           uniform 0;
    }
}


// ************************************************************************* //
