/*--------------------------------*- C++ -*----------------------------------*\
| =========                 |                                                 |
| \\      /  F ield         | OpenFOAM: The Open Source CFD Toolbox           |
|  \\    /   O peration     | Version:  2412                                  |
|   \\  /    A nd           | Website:  www.openfoam.com                      |
|    \\/     M anipulation  |                                                 |
\*---------------------------------------------------------------------------*/
FoamFile
{
    version     2.0;
    format      ascii;
    arch        "LSB;label=32;scalar=64";
    class       volVectorField;
    location    "6.7e-06";
    object      U;
}
// * * * * * * * * * * * * * * * * * * * * * * * * * * * * * * * * * * * * * //

dimensions      [0 0 0 0 0 0 0];

internalField   nonuniform List<vector> 
84
(
(2634.12 6.83256 6.91609e-15)
(2626.19 6.96094 -1.03958e-14)
(2628.38 7.05259 -1.63597e-14)
(2628.14 7.15473 1.09155e-14)
(2628.14 7.25917 -1.65042e-15)
(2628.12 7.36674 1.38984e-15)
(2628.1 7.47752 1.57663e-14)
(2628.23 7.46458 1.6917e-15)
(2636.35 -7.03667 6.57902e-15)
(2628.56 -7.2855 -9.85412e-15)
(2630.75 -7.341 -2.02307e-14)
(2630.56 -7.45724 2.75232e-15)
(2630.59 -7.57073 -3.78954e-14)
(2630.6 -7.6882 9.62687e-15)
(2630.62 -7.80934 3.0901e-14)
(2630.75 -7.79384 5.7614e-15)
(2636.11 -6.33195 -2.62659e-14)
(2628.77 -8.2947 8.26454e-15)
(2630.6 -7.21371 1.12321e-14)
(2630.46 -7.46868 -1.54053e-15)
(2630.48 -7.57168 -5.79333e-16)
(2630.5 -7.68976 1.47726e-14)
(2630.51 -7.81093 -1.28504e-14)
(2630.64 -7.79542 -1.40201e-14)
(2636.04 -6.60564 -2.52263e-14)
(2628.39 -7.43882 1.86318e-14)
(2630.56 -7.45402 -2.14131e-15)
(2630.36 -7.57409 -3.44881e-14)
(2630.39 -7.69131 3.4826e-14)
(2630.4 -7.81257 5.41928e-15)
(2630.53 -7.79704 -1.28568e-14)
(2636.07 -7.15907 -1.54518e-14)
(2628.26 -7.38015 -6.20054e-15)
(2630.46 -7.46122 7.45208e-16)
(2630.26 -7.57815 2.26144e-16)
(2630.28 -7.69563 -1.18492e-14)
(2630.29 -7.81702 1.0733e-14)
(2630.43 -7.80147 2.16815e-14)
(2635.95 -6.9358 -9.84723e-15)
(2628.12 -7.13646 2.00052e-14)
(2630.32 -7.22117 -2.27602e-15)
(2630.11 -7.33672 2.23592e-14)
(2630.14 -7.45329 -2.07734e-14)
(2630.15 -7.57382 1.74388e-14)
(2630.28 -7.55873 -3.69e-14)
(2635.73 -5.57971 -3.89669e-18)
(2627.84 -5.75634 1.8398e-14)
(2630.05 -5.81316 -2.18214e-15)
(2629.84 -5.90751 9.519e-17)
(2629.86 -6.00108 1.84905e-14)
(2629.86 -6.09794 2.00633e-15)
(2630 -6.08586 1.81944e-14)
(2635.53 -4.12629 2.68314e-16)
(2627.77 -5.76513 3.21913e-16)
(2629.83 -4.85868 -1.13644e-16)
(2629.65 -5.05749 -2.94533e-16)
(2629.66 -5.12983 -5.77927e-17)
(2629.66 -5.21447 1.41958e-16)
(2629.8 -5.20398 -1.44935e-14)
(2635.32 -3.95902 3.64679e-14)
(2627.31 -4.4517 -6.06134e-15)
(2629.55 -4.46817 -3.88265e-14)
(2629.33 -4.5413 -1.13544e-14)
(2629.34 -4.61349 2.17538e-14)
(2629.48 -4.60456 -2.94461e-15)
(2635.47 -4.18345 -1.2799e-14)
(2627.77 -4.2894 2.17938e-15)
(2629.93 -4.341 -1.80069e-14)
(2629.72 -4.40713 2.02852e-14)
(2629.74 -4.47409 3.36235e-14)
(2629.87 -4.46585 -4.03695e-15)
(2635.41 -4.40954 -1.65322e-14)
(2627.61 -4.97411 2.97934e-15)
(2629.79 -4.94806 -1.48253e-16)
(2629.58 -5.03156 3.5564e-14)
(2629.59 -5.10945 3.57294e-14)
(2629.73 -5.09982 9.22074e-16)
(2635.29 -0.716453 -1.40394e-15)
(2627.56 -6.88051 1.70208e-16)
(2629.71 -5.75368 -8.77677e-18)
(2629.5 -5.9439 2.16534e-14)
(2629.52 -6.02818 -2.67656e-15)
(2629.52 -6.1221 2.04127e-16)
(2629.65 -6.11075 -1.76699e-14)
)
;

boundaryField
{
    inlet
    {
        type            calculated;
        value           nonuniform List<vector> 0();
    }
    outlet2
    {
        type            calculated;
        value           uniform (0 0 0);
    }
    outlet1
    {
        type            calculated;
        value           uniform (0 0 0);
    }
    wall
    {
        type            calculated;
        value           uniform (0 0 0);
    }
    symmetryBottom
    {
        type            symmetry;
    }
    symmetryZ0
    {
        type            symmetry;
    }
    symmetryZ05
    {
        type            symmetry;
    }
    procBoundary0to1
    {
        type            processor;
        value           uniform (0 0 0);
    }
}


// ************************************************************************* //
