/*--------------------------------*- C++ -*----------------------------------*\
| =========                 |                                                 |
| \\      /  F ield         | OpenFOAM: The Open Source CFD Toolbox           |
|  \\    /   O peration     | Version:  2412                                  |
|   \\  /    A nd           | Website:  www.openfoam.com                      |
|    \\/     M anipulation  |                                                 |
\*---------------------------------------------------------------------------*/
FoamFile
{
    version     2.0;
    format      ascii;
    arch        "LSB;label=32;scalar=64";
    class       volScalarField;
    location    "7.7e-06";
    object      E_dof0;
}
// * * * * * * * * * * * * * * * * * * * * * * * * * * * * * * * * * * * * * //

dimensions      [0 0 0 0 0 0 0];

internalField   nonuniform List<scalar> 
84
(
95.4533
55.6935
60.729
60.3131
60.3449
60.3494
60.3556
60.9021
102.365
59.8389
65.2904
64.916
65.0214
65.1
65.1826
65.762
100.91
60.1203
64.6888
64.4343
64.5203
64.5912
64.6652
65.2412
100.407
59.0489
64.3779
63.9967
64.0877
64.1517
64.7244
100.268
58.554
63.8922
63.5028
63.5856
63.6413
64.2105
99.5332
58.1124
63.405
63.0108
63.0853
63.1326
63.6985
98.8108
57.6852
62.9283
62.5303
62.5966
62.6357
63.1983
97.7364
57.6683
62.4049
62.0712
62.1238
62.1556
62.7149
97.1597
56.9216
62.0551
61.6506
61.7025
62.2575
96.6241
56.3769
61.4881
61.0771
61.1202
61.671
95.7499
55.9856
61.0198
60.6071
60.6419
61.1895
94.4222
55.762
60.5392
60.1515
60.1765
60.1768
60.7227
)
;

boundaryField
{
    inlet
    {
        type            calculated;
        value           nonuniform List<scalar> 0();
    }
    outlet2
    {
        type            calculated;
        value           uniform 99.4306;
    }
    outlet1
    {
        type            calculated;
        value           uniform 99.4306;
    }
    wall
    {
        type            calculated;
        value           uniform 99.4306;
    }
    symmetryBottom
    {
        type            symmetry;
    }
    symmetryZ0
    {
        type            symmetry;
    }
    symmetryZ05
    {
        type            symmetry;
    }
    procBoundary0to1
    {
        type            processor;
        value           uniform 99.4306;
    }
}


// ************************************************************************* //
