/*--------------------------------*- C++ -*----------------------------------*\
| =========                 |                                                 |
| \\      /  F ield         | OpenFOAM: The Open Source CFD Toolbox           |
|  \\    /   O peration     | Version:  2412                                  |
|   \\  /    A nd           | Website:  www.openfoam.com                      |
|    \\/     M anipulation  |                                                 |
\*---------------------------------------------------------------------------*/
FoamFile
{
    version     2.0;
    format      ascii;
    arch        "LSB;label=32;scalar=64";
    class       volScalarField;
    location    "3.7e-06";
    object      E;
}
// * * * * * * * * * * * * * * * * * * * * * * * * * * * * * * * * * * * * * //

dimensions      [0 0 0 0 0 0 0];

internalField   nonuniform List<scalar> 
84
(
99.4338
48.3347
55.4085
99.4467
48.3522
55.4242
99.4434
48.3501
55.4219
99.4434
48.3501
55.4219
99.4434
48.3501
55.4219
99.4434
48.3501
55.4219
99.4434
48.3501
55.4219
99.4434
48.3501
55.4219
99.4434
48.3501
55.4219
99.4434
48.3501
55.4219
99.4434
48.3501
55.4218
99.4436
48.346
55.419
79.6685
78.0755
78.4228
82.4593
80.7174
81.0795
82.1702
80.4436
80.8024
81.8819
80.1706
80.2733
77.9629
81.5942
79.8983
79.9962
80.2855
81.3084
79.6276
79.7208
80.0093
81.0291
79.3629
79.4515
79.7393
80.7546
79.1027
79.1868
79.473
80.5054
78.8651
78.9452
78.9561
78.0372
80.1463
78.5287
78.6027
78.6087
78.8959
79.8803
78.2762
78.3458
78.3487
78.6833
79.6069
78.0168
78.0821
78.3659
)
;

boundaryField
{
    inlet
    {
        type            calculated;
        value           uniform 0;
    }
    outlet2
    {
        type            calculated;
        value           uniform 0;
    }
    outlet1
    {
        type            calculated;
        value           nonuniform List<scalar> 0();
    }
    wall
    {
        type            calculated;
        value           uniform 0;
    }
    symmetryBottom
    {
        type            symmetry;
    }
    symmetryZ0
    {
        type            symmetry;
    }
    symmetryZ05
    {
        type            symmetry;
    }
    procBoundary1to0
    {
        type            processor;
        value           uniform 0;
    }
}


// ************************************************************************* //
