/*--------------------------------*- C++ -*----------------------------------*\
| =========                 |                                                 |
| \\      /  F ield         | OpenFOAM: The Open Source CFD Toolbox           |
|  \\    /   O peration     | Version:  2412                                  |
|   \\  /    A nd           | Website:  www.openfoam.com                      |
|    \\/     M anipulation  |                                                 |
\*---------------------------------------------------------------------------*/
FoamFile
{
    version     2.0;
    format      ascii;
    arch        "LSB;label=32;scalar=64";
    class       volScalarField;
    location    "3.7e-06";
    object      rho_dof0;
}
// * * * * * * * * * * * * * * * * * * * * * * * * * * * * * * * * * * * * * //

dimensions      [0 0 0 0 0 0 0];

internalField   nonuniform List<scalar> 
84
(
2.81094e-05
1.38094e-05
1.57673e-05
2.8113e-05
1.38143e-05
1.57718e-05
2.81121e-05
1.38137e-05
1.57711e-05
2.81121e-05
1.38137e-05
1.57711e-05
2.81121e-05
1.38137e-05
1.57711e-05
2.81121e-05
1.38137e-05
1.57711e-05
2.81121e-05
1.38137e-05
1.57711e-05
2.81121e-05
1.38137e-05
1.57711e-05
2.81121e-05
1.38137e-05
1.57711e-05
2.81121e-05
1.38137e-05
1.57711e-05
2.81121e-05
1.38137e-05
1.57711e-05
2.81122e-05
1.38126e-05
1.57703e-05
2.25834e-05
2.21418e-05
2.22387e-05
2.33568e-05
2.28744e-05
2.29753e-05
2.32759e-05
2.27977e-05
2.28977e-05
2.31952e-05
2.27213e-05
2.27496e-05
2.21028e-05
2.31147e-05
2.2645e-05
2.2672e-05
2.27529e-05
2.30343e-05
2.25688e-05
2.25944e-05
2.26752e-05
2.2954e-05
2.24927e-05
2.2517e-05
2.25976e-05
2.28745e-05
2.24175e-05
2.24405e-05
2.25206e-05
2.27928e-05
2.23401e-05
2.23617e-05
2.23646e-05
2.21251e-05
2.2718e-05
2.22691e-05
2.22896e-05
2.22914e-05
2.2372e-05
2.26374e-05
2.21928e-05
2.22119e-05
2.22128e-05
2.23064e-05
2.25594e-05
2.21188e-05
2.21367e-05
2.22162e-05
)
;

boundaryField
{
    inlet
    {
        type            calculated;
        value           uniform 2.81085e-05;
    }
    outlet2
    {
        type            calculated;
        value           uniform 2.81085e-05;
    }
    outlet1
    {
        type            calculated;
        value           nonuniform List<scalar> 0();
    }
    wall
    {
        type            calculated;
        value           uniform 2.81085e-05;
    }
    symmetryBottom
    {
        type            symmetry;
    }
    symmetryZ0
    {
        type            symmetry;
    }
    symmetryZ05
    {
        type            symmetry;
    }
    procBoundary1to0
    {
        type            processor;
        value           uniform 2.81085e-05;
    }
}


// ************************************************************************* //
