/*--------------------------------*- C++ -*----------------------------------*\
| =========                 |                                                 |
| \\      /  F ield         | OpenFOAM: The Open Source CFD Toolbox           |
|  \\    /   O peration     | Version:  2412                                  |
|   \\  /    A nd           | Website:  www.openfoam.com                      |
|    \\/     M anipulation  |                                                 |
\*---------------------------------------------------------------------------*/
FoamFile
{
    version     2.0;
    format      ascii;
    arch        "LSB;label=32;scalar=64";
    class       volVectorField;
    location    "3.7e-06";
    object      rhoU;
}
// * * * * * * * * * * * * * * * * * * * * * * * * * * * * * * * * * * * * * //

dimensions      [0 0 0 0 0 0 0];

internalField   nonuniform List<vector> 
84
(
(0.0741073 -2.34028e-07 0)
(0.0362115 -4.52098e-07 0)
(0.0414294 -3.80159e-07 -1.02267e-19)
(0.0741169 -8.96596e-05 0)
(0.0362247 -5.29943e-05 0)
(0.0414411 -5.85811e-05 -9.91429e-20)
(0.0741145 -8.94214e-05 0)
(0.0362231 -5.28455e-05 0)
(0.0414394 -5.84185e-05 1.32709e-19)
(0.0741145 -8.94214e-05 0)
(0.0362231 -5.28455e-05 0)
(0.0414394 -5.84185e-05 -1.71006e-19)
(0.0741145 -8.94214e-05 0)
(0.0362231 -5.28455e-05 0)
(0.0414394 -5.84185e-05 -2.84953e-19)
(0.0741145 -8.94214e-05 0)
(0.0362231 -5.28455e-05 0)
(0.0414394 -5.84185e-05 1.67838e-19)
(0.0741145 -8.94214e-05 0)
(0.0362231 -5.28455e-05 0)
(0.0414394 -5.84185e-05 -2.15503e-19)
(0.0741145 -8.94214e-05 0)
(0.0362231 -5.28455e-05 0)
(0.0414394 -5.84185e-05 -2.44361e-19)
(0.0741145 -8.94214e-05 0)
(0.0362231 -5.28455e-05 0)
(0.0414394 -5.84185e-05 9.99141e-20)
(0.0741145 -8.94214e-05 0)
(0.0362231 -5.28455e-05 0)
(0.0414394 -5.84185e-05 -2.14746e-19)
(0.0741145 -8.94214e-05 0)
(0.0362231 -5.28439e-05 0)
(0.0414394 -5.84173e-05 -5.2387e-19)
(0.0741146 -8.94335e-05 0)
(0.0362201 -5.25482e-05 0)
(0.0414373 -5.82073e-05 0)
(0.0594498 8.77587e-05 6.40181e-21)
(0.0582742 8.30975e-05 9.48318e-20)
(0.0585313 8.35583e-05 9.47731e-21)
(0.0615158 -8.81192e-05 6.16107e-21)
(0.0602306 -8.7612e-05 1.00134e-19)
(0.0604985 -8.79023e-05 -1.66838e-21)
(0.0613013 -8.78379e-05 -9.07351e-21)
(0.0600274 -8.73336e-05 -4.69478e-20)
(0.0602929 -8.75672e-05 -2.00533e-19)
(0.0610875 -8.75504e-05 1.16625e-20)
(0.0598249 -8.70564e-05 -2.00716e-21)
(0.0599005 -8.83947e-05 9.57728e-23)
(0.0581868 3.83323e-06 1.4972e-19)
(0.0608742 -8.72789e-05 -3.12342e-20)
(0.0596228 -8.67941e-05 3.53441e-22)
(0.0596949 -8.81241e-05 -1.535e-21)
(0.0599094 -8.83499e-05 1.52792e-19)
(0.0606606 -8.30639e-05 -1.14412e-20)
(0.0594204 -8.28128e-05 -9.85952e-20)
(0.059489 -8.40833e-05 3.08725e-21)
(0.059703 -8.43001e-05 1.01397e-19)
(0.0604463 -6.59237e-05 1.37959e-20)
(0.0592174 -6.65471e-05 -9.30133e-22)
(0.0592824 -6.75299e-05 -3.66618e-22)
(0.0594959 -6.77057e-05 -8.17426e-22)
(0.0602352 -5.50894e-05 1.75117e-20)
(0.0590174 -5.62603e-05 -9.69541e-20)
(0.0590789 -5.70679e-05 1.06468e-19)
(0.0592912 -5.71765e-05 1.13007e-21)
(0.0600182 -4.89406e-05 -6.24842e-21)
(0.0588113 -5.04115e-05 -1.46333e-19)
(0.0588692 -5.11052e-05 -1.40049e-19)
(0.0588767 -5.18522e-05 1.65938e-19)
(0.0582453 4.06745e-06 9.21961e-19)
(0.0598217 -4.83225e-05 1.48479e-20)
(0.0586265 -4.98145e-05 -1.4743e-19)
(0.0586813 -5.04807e-05 1.0417e-19)
(0.058686 -5.12029e-05 2.28252e-19)
(0.0588996 -5.15368e-05 1.35103e-19)
(0.0596087 -5.4915e-05 3.58846e-20)
(0.0584244 -5.60496e-05 -1.36607e-21)
(0.0584757 -5.68273e-05 2.2411e-22)
(0.0584779 -5.7684e-05 -1.54295e-22)
(0.0587259 -6.04431e-05 -1.50699e-19)
(0.0594025 -6.65132e-05 1.07757e-22)
(0.0582289 -6.70049e-05 1.41816e-19)
(0.0582768 -6.79666e-05 -8.39735e-21)
(0.0584874 -6.81252e-05 -2.29593e-19)
)
;

boundaryField
{
    inlet
    {
        type            calculated;
        value           uniform (0 0 0);
    }
    outlet2
    {
        type            calculated;
        value           uniform (0 0 0);
    }
    outlet1
    {
        type            calculated;
        value           nonuniform List<vector> 0();
    }
    wall
    {
        type            calculated;
        value           uniform (0 0 0);
    }
    symmetryBottom
    {
        type            symmetry;
    }
    symmetryZ0
    {
        type            symmetry;
    }
    symmetryZ05
    {
        type            symmetry;
    }
    procBoundary1to0
    {
        type            processor;
        value           uniform (0 0 0);
    }
}


// ************************************************************************* //
