/*--------------------------------*- C++ -*----------------------------------*\
| =========                 |                                                 |
| \\      /  F ield         | OpenFOAM: The Open Source CFD Toolbox           |
|  \\    /   O peration     | Version:  2412                                  |
|   \\  /    A nd           | Website:  www.openfoam.com                      |
|    \\/     M anipulation  |                                                 |
\*---------------------------------------------------------------------------*/
FoamFile
{
    version     2.0;
    format      ascii;
    arch        "LSB;label=32;scalar=64";
    class       volVectorField;
    location    "3.7e-06";
    object      U;
}
// * * * * * * * * * * * * * * * * * * * * * * * * * * * * * * * * * * * * * //

dimensions      [0 0 0 0 0 0 0];

internalField   nonuniform List<vector> 
84
(
(2636.39 -0.00832561 0)
(2622.25 -0.0327386 0)
(2627.55 -0.0241106 -6.48604e-15)
(2636.39 -3.18925 0)
(2622.25 -3.83618 0)
(2627.55 -3.71431 -6.28611e-15)
(2636.39 -3.18088 0)
(2622.25 -3.82558 0)
(2627.55 -3.70415 8.41469e-15)
(2636.39 -3.18088 0)
(2622.25 -3.82557 0)
(2627.55 -3.70414 -1.0843e-14)
(2636.39 -3.18088 0)
(2622.25 -3.82557 0)
(2627.55 -3.70414 -1.8068e-14)
(2636.39 -3.18088 0)
(2622.25 -3.82557 0)
(2627.55 -3.70414 1.06421e-14)
(2636.39 -3.18088 0)
(2622.25 -3.82557 0)
(2627.55 -3.70414 -1.36644e-14)
(2636.39 -3.18088 0)
(2622.25 -3.82557 0)
(2627.55 -3.70414 -1.54942e-14)
(2636.39 -3.18088 0)
(2622.25 -3.82557 0)
(2627.55 -3.70414 6.33526e-15)
(2636.39 -3.18088 0)
(2622.25 -3.82557 0)
(2627.55 -3.70414 -1.36164e-14)
(2636.39 -3.18088 0)
(2622.25 -3.82546 0)
(2627.55 -3.70407 -3.32171e-14)
(2636.39 -3.18131 0)
(2622.25 -3.80437 0)
(2627.55 -3.69095 0)
(2632.46 3.88598 2.83474e-16)
(2631.86 3.75297 4.28293e-15)
(2631.96 3.75735 4.26164e-16)
(2633.74 -3.77274 2.6378e-16)
(2633.1 -3.83013 4.37755e-15)
(2633.2 -3.82594 -7.26163e-17)
(2633.68 -3.77377 -3.89824e-16)
(2633.04 -3.8308 -2.05932e-15)
(2633.14 -3.82428 -8.75778e-15)
(2633.63 -3.7745 5.02796e-16)
(2632.99 -3.83149 -8.83385e-17)
(2633.04 -3.88555 4.20987e-18)
(2632.55 0.173427 6.77379e-15)
(2633.57 -3.7759 -1.35127e-15)
(2632.94 -3.83282 1.56079e-17)
(2632.98 -3.88692 -6.77048e-17)
(2633.04 -3.88301 6.71526e-15)
(2633.49 -3.6061 -4.96702e-16)
(2632.86 -3.66936 -4.36866e-15)
(2632.91 -3.72142 1.36638e-16)
(2632.97 -3.71772 4.4717e-15)
(2633.37 -2.872 6.01023e-16)
(2632.74 -2.95861 -4.13526e-17)
(2632.78 -2.99906 -1.62818e-17)
(2632.84 -2.99614 -3.61731e-17)
(2633.28 -2.40833 7.65553e-16)
(2632.65 -2.50966 -4.32493e-15)
(2632.69 -2.54308 4.74446e-15)
(2632.75 -2.53885 5.01793e-17)
(2633.2 -2.14719 -2.7414e-16)
(2632.55 -2.25655 -6.55023e-15)
(2632.59 -2.28539 -6.26291e-15)
(2632.59 -2.3185 7.41967e-15)
(2632.54 0.183838 4.16703e-14)
(2633.23 -2.12706 6.53573e-16)
(2632.64 -2.23693 -6.6204e-15)
(2632.68 -2.26477 4.6735e-15)
(2632.68 -2.29698 1.02395e-14)
(2632.74 -2.30363 6.03895e-15)
(2633.19 -2.42585 1.58519e-15)
(2632.59 -2.52558 -6.15549e-17)
(2632.63 -2.55841 1.00896e-17)
(2632.62 -2.59688 -6.94623e-18)
(2632.69 -2.70968 -6.75584e-15)
(2633.16 -2.94836 4.77657e-18)
(2632.55 -3.02932 6.41157e-15)
(2632.59 -3.07032 -3.79341e-16)
(2632.65 -3.06647 -1.03345e-14)
)
;

boundaryField
{
    inlet
    {
        type            calculated;
        value           uniform (0 0 0);
    }
    outlet2
    {
        type            calculated;
        value           uniform (0 0 0);
    }
    outlet1
    {
        type            calculated;
        value           nonuniform List<vector> 0();
    }
    wall
    {
        type            calculated;
        value           uniform (0 0 0);
    }
    symmetryBottom
    {
        type            symmetry;
    }
    symmetryZ0
    {
        type            symmetry;
    }
    symmetryZ05
    {
        type            symmetry;
    }
    procBoundary1to0
    {
        type            processor;
        value           uniform (0 0 0);
    }
}


// ************************************************************************* //
