/*--------------------------------*- C++ -*----------------------------------*\
| =========                 |                                                 |
| \\      /  F ield         | OpenFOAM: The Open Source CFD Toolbox           |
|  \\    /   O peration     | Version:  2412                                  |
|   \\  /    A nd           | Website:  www.openfoam.com                      |
|    \\/     M anipulation  |                                                 |
\*---------------------------------------------------------------------------*/
FoamFile
{
    version     2.0;
    format      ascii;
    arch        "LSB;label=32;scalar=64";
    class       volScalarField;
    location    "3e-06";
    object      E;
}
// * * * * * * * * * * * * * * * * * * * * * * * * * * * * * * * * * * * * * //

dimensions      [0 0 0 0 0 0 0];

internalField   nonuniform List<scalar> 
84
(
98.9099
80.9359
81.806
81.7801
81.7821
81.7835
81.785
82.0517
101.687
83.2594
84.1871
84.1967
84.2359
84.2758
84.3169
84.5896
101.275
83.1306
83.9346
83.9473
83.9824
84.0181
84.0551
84.3272
101.048
82.8113
83.7258
83.7289
83.7613
83.794
84.0655
100.866
82.5655
83.4774
83.4765
83.5049
83.5335
83.8044
100.579
82.3246
83.2305
83.2258
83.2502
83.2747
83.545
100.298
82.0894
82.989
82.9807
83.0012
83.0216
83.2914
99.9542
81.9193
82.7477
82.7395
82.7561
82.7726
83.0417
99.7259
81.6602
82.5474
82.5326
82.5461
82.8147
99.4184
81.3511
82.2326
82.213
82.2216
82.4894
99.1155
81.1252
81.9989
81.9757
81.9805
82.2477
98.5636
80.9241
81.7555
81.7305
81.7313
81.7316
81.9983
)
;

boundaryField
{
    inlet
    {
        type            calculated;
        value           nonuniform List<scalar> 0();
    }
    outlet2
    {
        type            calculated;
        value           uniform 0;
    }
    outlet1
    {
        type            calculated;
        value           uniform 0;
    }
    wall
    {
        type            calculated;
        value           uniform 0;
    }
    symmetryBottom
    {
        type            symmetry;
    }
    symmetryZ0
    {
        type            symmetry;
    }
    symmetryZ05
    {
        type            symmetry;
    }
    procBoundary0to1
    {
        type            processor;
        value           uniform 0;
    }
}


// ************************************************************************* //
