/*--------------------------------*- C++ -*----------------------------------*\
| =========                 |                                                 |
| \\      /  F ield         | OpenFOAM: The Open Source CFD Toolbox           |
|  \\    /   O peration     | Version:  2412                                  |
|   \\  /    A nd           | Website:  www.openfoam.com                      |
|    \\/     M anipulation  |                                                 |
\*---------------------------------------------------------------------------*/
FoamFile
{
    version     2.0;
    format      ascii;
    arch        "LSB;label=32;scalar=64";
    class       volScalarField;
    location    "3e-06";
    object      rho;
}
// * * * * * * * * * * * * * * * * * * * * * * * * * * * * * * * * * * * * * //

dimensions      [0 0 0 0 0 0 0];

internalField   nonuniform List<scalar> 
84
(
2.7973e-05
2.29447e-05
2.31854e-05
2.31784e-05
2.3179e-05
2.31795e-05
2.31801e-05
2.32547e-05
2.87416e-05
2.35888e-05
2.38453e-05
2.38482e-05
2.38592e-05
2.38703e-05
2.38818e-05
2.39581e-05
2.86268e-05
2.35523e-05
2.37747e-05
2.37784e-05
2.37882e-05
2.37982e-05
2.38085e-05
2.38847e-05
2.85632e-05
2.34633e-05
2.37162e-05
2.37172e-05
2.37263e-05
2.37355e-05
2.38114e-05
2.85122e-05
2.33945e-05
2.36466e-05
2.36466e-05
2.36545e-05
2.36625e-05
2.37383e-05
2.84315e-05
2.33267e-05
2.35771e-05
2.3576e-05
2.35828e-05
2.35897e-05
2.36653e-05
2.83508e-05
2.32591e-05
2.35078e-05
2.35056e-05
2.35113e-05
2.3517e-05
2.35924e-05
2.82521e-05
2.32092e-05
2.3438e-05
2.34358e-05
2.34404e-05
2.3445e-05
2.35203e-05
2.81772e-05
2.31268e-05
2.33718e-05
2.33676e-05
2.33711e-05
2.34462e-05
2.81165e-05
2.30615e-05
2.33055e-05
2.33003e-05
2.33028e-05
2.33778e-05
2.80254e-05
2.29931e-05
2.32348e-05
2.32285e-05
2.32299e-05
2.33046e-05
2.78687e-05
2.29357e-05
2.31654e-05
2.31585e-05
2.31588e-05
2.31589e-05
2.32335e-05
)
;

boundaryField
{
    inlet
    {
        type            calculated;
        value           nonuniform List<scalar> 0();
    }
    outlet2
    {
        type            calculated;
        value           uniform 0;
    }
    outlet1
    {
        type            calculated;
        value           uniform 0;
    }
    wall
    {
        type            calculated;
        value           uniform 0;
    }
    symmetryBottom
    {
        type            symmetry;
    }
    symmetryZ0
    {
        type            symmetry;
    }
    symmetryZ05
    {
        type            symmetry;
    }
    procBoundary0to1
    {
        type            processor;
        value           uniform 0;
    }
}


// ************************************************************************* //
