/*--------------------------------*- C++ -*----------------------------------*\
| =========                 |                                                 |
| \\      /  F ield         | OpenFOAM: The Open Source CFD Toolbox           |
|  \\    /   O peration     | Version:  2412                                  |
|   \\  /    A nd           | Website:  www.openfoam.com                      |
|    \\/     M anipulation  |                                                 |
\*---------------------------------------------------------------------------*/
FoamFile
{
    version     2.0;
    format      ascii;
    arch        "LSB;label=32;scalar=64";
    class       volScalarField;
    location    "9.2e-06";
    object      E;
}
// * * * * * * * * * * * * * * * * * * * * * * * * * * * * * * * * * * * * * //

dimensions      [0 0 0 0 0 0 0];

internalField   nonuniform List<scalar> 
84
(
102.075
52.0055
55.7056
55.5403
55.5647
55.5852
55.5533
56.2337
109.249
55.7512
59.7648
59.6507
59.7409
59.8287
59.8694
60.5876
107.787
55.8458
59.2565
59.1892
59.27
59.3512
59.3847
60.0985
106.595
54.97
58.8402
58.7193
58.7985
58.8219
59.5309
106.684
54.404
58.3113
58.1795
58.2498
58.2635
58.9676
105.766
53.9168
57.7835
57.6447
57.7061
57.7103
58.4097
104.84
53.4368
57.2601
57.1148
57.1675
57.1624
57.857
103.637
53.192
56.7196
56.5909
56.6338
56.6196
57.3094
102.611
52.5393
56.2522
56.0984
56.082
56.767
102.159
52.029
55.7366
55.5746
55.5494
56.2296
101.195
51.5623
55.2239
55.0556
55.0217
55.6973
99.3869
51.221
54.7048
54.5376
54.5485
54.4992
55.1704
)
;

boundaryField
{
    inlet
    {
        type            calculated;
        value           nonuniform List<scalar> 0();
    }
    outlet2
    {
        type            calculated;
        value           uniform 0;
    }
    outlet1
    {
        type            calculated;
        value           uniform 0;
    }
    wall
    {
        type            calculated;
        value           uniform 0;
    }
    symmetryBottom
    {
        type            symmetry;
    }
    symmetryZ0
    {
        type            symmetry;
    }
    symmetryZ05
    {
        type            symmetry;
    }
    procBoundary0to1
    {
        type            processor;
        value           uniform 0;
    }
}


// ************************************************************************* //
