/*--------------------------------*- C++ -*----------------------------------*\
| =========                 |                                                 |
| \\      /  F ield         | OpenFOAM: The Open Source CFD Toolbox           |
|  \\    /   O peration     | Version:  2412                                  |
|   \\  /    A nd           | Website:  www.openfoam.com                      |
|    \\/     M anipulation  |                                                 |
\*---------------------------------------------------------------------------*/
FoamFile
{
    version     2.0;
    format      ascii;
    arch        "LSB;label=32;scalar=64";
    class       volVectorField;
    location    "9.2e-06";
    object      rhoU_dof0;
}
// * * * * * * * * * * * * * * * * * * * * * * * * * * * * * * * * * * * * * //

dimensions      [0 0 0 0 0 0 0];

internalField   nonuniform List<vector> 
84
(
(0.0760528 -5.01378e-06 3.25554e-19)
(0.0389192 -3.03596e-06 -1.75021e-19)
(0.0416483 -3.24843e-06 -4.94244e-19)
(0.0415271 -3.34096e-06 2.47293e-19)
(0.041545 -3.44252e-06 -2.51006e-20)
(0.0415602 -3.54838e-06 -1.69489e-20)
(0.0415367 -3.66801e-06 4.41673e-19)
(0.0420416 -3.68148e-06 4.23111e-20)
(0.0813786 -0.000293488 3.19753e-19)
(0.0417106 -0.000155771 -1.71703e-19)
(0.0446709 -0.000168315 -6.14437e-19)
(0.044588 -0.000170554 1.37401e-19)
(0.0446549 -0.000173369 -1.07744e-18)
(0.0447202 -0.000176253 1.35507e-19)
(0.0447507 -0.000179371 8.62448e-19)
(0.0452837 -0.000180885 1.56341e-19)
(0.0802984 -0.000272064 -1.42875e-18)
(0.0417775 -0.000176041 1.62694e-19)
(0.0442935 -0.000168418 2.98509e-19)
(0.0442448 -0.00017253 -2.25338e-20)
(0.0443048 -0.000175308 -5.94709e-20)
(0.0443651 -0.000178259 4.67041e-19)
(0.0443902 -0.000181448 -3.19016e-19)
(0.04492 -0.000182972 -3.89469e-19)
(0.079416 -0.000261875 -1.41309e-18)
(0.0411286 -0.000161051 5.00075e-19)
(0.0439836 -0.000171337 3.44061e-20)
(0.0438956 -0.000173777 -1.00862e-18)
(0.0439543 -0.00017669 9.13532e-19)
(0.043972 -0.000179823 1.60733e-19)
(0.0444982 -0.000181339 -3.02976e-19)
(0.0794786 -0.000295933 -7.51288e-19)
(0.0407084 -0.000157035 -1.45473e-19)
(0.0435905 -0.000169957 1.18264e-20)
(0.0434944 -0.00017222 1.90887e-20)
(0.0435465 -0.000175087 -3.20635e-19)
(0.043557 -0.000178164 1.96681e-19)
(0.0440796 -0.000179672 5.81844e-19)
(0.0787983 -0.000294076 -4.92687e-19)
(0.040346 -0.000155624 5.33765e-19)
(0.0431982 -0.000168463 -8.93892e-20)
(0.0430969 -0.000170681 6.6592e-19)
(0.0431425 -0.000173499 -6.12285e-19)
(0.0431458 -0.00017652 5.41571e-19)
(0.0436649 -0.000178019 -9.33408e-19)
(0.0781129 -0.000291436 -4.48353e-20)
(0.0399889 -0.00015439 4.96987e-19)
(0.0428093 -0.000166968 -3.75809e-20)
(0.042703 -0.000169156 -3.41988e-20)
(0.0427421 -0.000171924 5.21421e-19)
(0.0427385 -0.00017489 3.10014e-20)
(0.0432541 -0.000176381 4.85187e-19)
(0.0772226 -0.00026764 6.84311e-21)
(0.0398051 -0.000170936 7.88621e-21)
(0.0424077 -0.000163827 -1.76547e-21)
(0.0423136 -0.000167734 -6.55934e-21)
(0.0423454 -0.00017036 1.908e-21)
(0.042335 -0.000173276 3.11971e-20)
(0.0428471 -0.000174758 -3.93349e-19)
(0.0764626 -0.000255158 1.69346e-18)
(0.0393208 -0.000156536 -3.80591e-20)
(0.04206 -0.000166513 -9.85184e-19)
(0.0419474 -0.000168804 -3.6418e-19)
(0.0419354 -0.000171676 5.57817e-19)
(0.0424439 -0.000173149 -3.23853e-20)
(0.0761262 -0.000288231 -5.83482e-19)
(0.0389414 -0.000152616 8.01296e-20)
(0.0416768 -0.000165148 -5.5063e-19)
(0.041558 -0.000167267 4.86395e-19)
(0.0415394 -0.000170091 9.0016e-19)
(0.0420445 -0.000171556 -8.41869e-20)
(0.0754122 -0.000268757 -7.81738e-19)
(0.0385941 -0.000152872 5.56155e-20)
(0.0412955 -0.000163585 -6.92831e-20)
(0.0411722 -0.000165752 8.43227e-19)
(0.0411471 -0.00016852 9.60963e-19)
(0.0416487 -0.000169977 1.84519e-20)
(0.0740727 -1.60676e-05 -4.00392e-20)
(0.0383393 -0.000182633 3.2257e-21)
(0.0409097 -0.000157171 -4.51173e-20)
(0.040787 -0.000161772 5.996e-19)
(0.040795 -0.000164181 -4.76864e-20)
(0.0407586 -0.000166889 4.12974e-20)
(0.041257 -0.000168343 -4.89264e-19)
)
;

boundaryField
{
    inlet
    {
        type            calculated;
        value           nonuniform List<vector> 0();
    }
    outlet2
    {
        type            calculated;
        value           uniform (0.0741049 0 0);
    }
    outlet1
    {
        type            calculated;
        value           uniform (0.0741049 0 0);
    }
    wall
    {
        type            calculated;
        value           uniform (0.0741049 0 0);
    }
    symmetryBottom
    {
        type            symmetry;
    }
    symmetryZ0
    {
        type            symmetry;
    }
    symmetryZ05
    {
        type            symmetry;
    }
    procBoundary0to1
    {
        type            processor;
        value           uniform (0.0741049 0 0);
    }
}


// ************************************************************************* //
