/*--------------------------------*- C++ -*----------------------------------*\
| =========                 |                                                 |
| \\      /  F ield         | OpenFOAM: The Open Source CFD Toolbox           |
|  \\    /   O peration     | Version:  2412                                  |
|   \\  /    A nd           | Website:  www.openfoam.com                      |
|    \\/     M anipulation  |                                                 |
\*---------------------------------------------------------------------------*/
FoamFile
{
    version     2.0;
    format      ascii;
    arch        "LSB;label=32;scalar=64";
    class       volScalarField;
    location    "5.6e-06";
    object      E;
}
// * * * * * * * * * * * * * * * * * * * * * * * * * * * * * * * * * * * * * //

dimensions      [0 0 0 0 0 0 0];

internalField   nonuniform List<scalar> 
84
(
97.3183
66.4236
69.2572
69.0898
69.101
69.1044
69.1082
69.5475
102.434
70.0015
73.0324
72.9143
72.9852
73.0498
73.1168
73.5752
101.489
70.0155
72.5903
72.5146
72.5758
72.6339
72.694
73.1503
101.097
69.3117
72.2881
72.161
72.2205
72.2734
72.7279
100.9
68.912
71.8891
71.7556
71.8085
71.8547
72.3072
100.363
68.5353
71.4912
71.3522
71.3985
71.4379
71.8884
99.836
68.1687
71.102
70.9579
70.9978
71.0306
71.4792
99.1071
68.026
70.698
70.5751
70.6071
70.6337
71.0805
98.6832
67.5052
70.3894
70.2363
70.2647
70.7096
98.2163
67.0356
69.9067
69.747
69.7679
70.2103
97.6056
66.6899
69.5275
69.3633
69.3778
69.8183
96.6106
66.4401
69.1375
68.98
68.9877
68.9884
69.4274
)
;

boundaryField
{
    inlet
    {
        type            calculated;
        value           nonuniform List<scalar> 0();
    }
    outlet2
    {
        type            calculated;
        value           uniform 0;
    }
    outlet1
    {
        type            calculated;
        value           uniform 0;
    }
    wall
    {
        type            calculated;
        value           uniform 0;
    }
    symmetryBottom
    {
        type            symmetry;
    }
    symmetryZ0
    {
        type            symmetry;
    }
    symmetryZ05
    {
        type            symmetry;
    }
    procBoundary0to1
    {
        type            processor;
        value           uniform 0;
    }
}


// ************************************************************************* //
