/*--------------------------------*- C++ -*----------------------------------*\
| =========                 |                                                 |
| \\      /  F ield         | OpenFOAM: The Open Source CFD Toolbox           |
|  \\    /   O peration     | Version:  2412                                  |
|   \\  /    A nd           | Website:  www.openfoam.com                      |
|    \\/     M anipulation  |                                                 |
\*---------------------------------------------------------------------------*/
FoamFile
{
    version     2.0;
    format      ascii;
    arch        "LSB;label=32;scalar=64";
    class       volVectorField;
    location    "5.6e-06";
    object      rhoU;
}
// * * * * * * * * * * * * * * * * * * * * * * * * * * * * * * * * * * * * * //

dimensions      [0 0 0 0 0 0 0];

internalField   nonuniform List<vector> 
84
(
(0.0725558 0.000158486 1.59412e-19)
(0.0496381 0.000110725 -1.5601e-19)
(0.0517282 0.00011688 -2.80795e-19)
(0.0516055 0.000118309 1.71757e-19)
(0.0516138 0.000120071 -2.11834e-20)
(0.0516164 0.000121874 2.12157e-20)
(0.0516193 0.000123732 2.65785e-19)
(0.0519454 0.000124328 3.81596e-20)
(0.0763405 -0.00017045 1.6122e-19)
(0.05229 -0.000120832 -1.55908e-19)
(0.0545252 -0.000127166 -3.58586e-19)
(0.0544392 -0.000128939 4.08192e-20)
(0.0544917 -0.00013103 -6.76077e-19)
(0.0545397 -0.00013318 1.50661e-19)
(0.0545894 -0.000135401 5.44705e-19)
(0.0549295 -0.000136012 1.10859e-19)
(0.0756418 -0.000154214 -6.55636e-19)
(0.0522983 -0.000134019 1.23354e-19)
(0.0541975 -0.000124955 2.125e-19)
(0.0541424 -0.00012836 -2.22924e-20)
(0.0541878 -0.000130325 -8.893e-21)
(0.0542309 -0.000132457 2.65462e-19)
(0.0542755 -0.000134654 -2.31434e-19)
(0.0546141 -0.000135264 -2.54434e-19)
(0.0753506 -0.00015952 -6.33503e-19)
(0.0517776 -0.000121955 2.98e-19)
(0.0539727 -0.000127824 -3.07624e-20)
(0.05388 -0.000129623 -6.08212e-19)
(0.053924 -0.000131738 6.0005e-19)
(0.0539634 -0.000133912 1.01146e-19)
(0.0543006 -0.000134519 -2.32214e-19)
(0.0752036 -0.000170747 -4.00894e-19)
(0.0514809 -0.000120632 -1.05026e-19)
(0.0536765 -0.000127219 1.09117e-20)
(0.053579 -0.000128966 3.33287e-21)
(0.0536182 -0.000131061 -2.17896e-19)
(0.0536524 -0.000133213 1.75572e-19)
(0.0539882 -0.000133818 3.77923e-19)
(0.0748028 -0.000163923 -2.40401e-19)
(0.0511993 -0.00011561 3.21469e-19)
(0.0533792 -0.000121994 -3.22823e-20)
(0.0532776 -0.000123692 3.84488e-19)
(0.0533118 -0.00012573 -3.52467e-19)
(0.053341 -0.000127824 2.9848e-19)
(0.0536754 -0.000128406 -6.49428e-19)
(0.0743986 -0.000131271 -8.36814e-23)
(0.0509179 -9.27132e-05 3.01719e-19)
(0.0530805 -9.77059e-05 -3.12307e-20)
(0.052975 -9.90688e-05 7.68031e-22)
(0.0530043 -0.000100689 3.17383e-19)
(0.0530284 -0.000102354 4.09869e-20)
(0.0533613 -0.000102823 3.14684e-19)
(0.0738453 -9.82208e-05 5.47705e-21)
(0.0508012 -8.9425e-05 4.01296e-21)
(0.0527706 -8.15791e-05 -1.63155e-21)
(0.0526804 -8.40487e-05 -4.12966e-21)
(0.0527038 -8.53494e-05 -8.60762e-22)
(0.0527231 -8.67746e-05 1.88092e-21)
(0.0530545 -8.71713e-05 -2.61088e-19)
(0.0734746 -9.32628e-05 8.54031e-19)
(0.0503705 -7.09461e-05 -7.63354e-20)
(0.0524942 -7.44478e-05 -6.63933e-19)
(0.052381 -7.54832e-05 -2.12053e-19)
(0.0524007 -7.67108e-05 3.63432e-19)
(0.0527305 -7.70662e-05 -3.87899e-20)
(0.0732564 -9.77629e-05 -3.03695e-19)
(0.0501148 -6.86727e-05 2.73555e-20)
(0.0522343 -7.24594e-05 -3.06797e-19)
(0.0521176 -7.34029e-05 3.38648e-19)
(0.0521336 -7.4549e-05 5.65758e-19)
(0.052462 -7.49e-05 -5.89762e-20)
(0.0727732 -0.000103284 -4.26262e-19)
(0.0498375 -7.84725e-05 3.745e-20)
(0.051931 -8.18657e-05 -1.47772e-21)
(0.0518107 -8.30048e-05 5.94807e-19)
(0.0518215 -8.43138e-05 6.13811e-19)
(0.0521485 -8.4709e-05 2.31388e-20)
(0.0720251 -1.42378e-05 -2.90337e-20)
(0.0496479 -0.000105203 1.83236e-21)
(0.0516368 -9.51609e-05 -8.17582e-23)
(0.0515214 -9.75162e-05 3.595e-19)
(0.0515271 -9.89622e-05 -3.679e-20)
(0.0515277 -0.000100506 2.31067e-21)
(0.0518535 -0.000100982 -3.02605e-19)
)
;

boundaryField
{
    inlet
    {
        type            calculated;
        value           nonuniform List<vector> 0();
    }
    outlet2
    {
        type            calculated;
        value           uniform (0 0 0);
    }
    outlet1
    {
        type            calculated;
        value           uniform (0 0 0);
    }
    wall
    {
        type            calculated;
        value           uniform (0 0 0);
    }
    symmetryBottom
    {
        type            symmetry;
    }
    symmetryZ0
    {
        type            symmetry;
    }
    symmetryZ05
    {
        type            symmetry;
    }
    procBoundary0to1
    {
        type            processor;
        value           uniform (0 0 0);
    }
}


// ************************************************************************* //
