/*--------------------------------*- C++ -*----------------------------------*\
| =========                 |                                                 |
| \\      /  F ield         | OpenFOAM: The Open Source CFD Toolbox           |
|  \\    /   O peration     | Version:  2412                                  |
|   \\  /    A nd           | Website:  www.openfoam.com                      |
|    \\/     M anipulation  |                                                 |
\*---------------------------------------------------------------------------*/
FoamFile
{
    version     2.0;
    format      ascii;
    arch        "LSB;label=32;scalar=64";
    class       volScalarField;
    location    "5.6e-06";
    object      T;
}
// * * * * * * * * * * * * * * * * * * * * * * * * * * * * * * * * * * * * * //

dimensions      [0 0 0 0 0 0 0];

internalField   nonuniform List<scalar> 
84
(
203.402
203.452
203.549
203.596
203.653
203.71
203.769
203.763
199.981
199.958
200.004
199.997
199.998
199.998
199.998
199.998
199.962
199.959
200.003
199.997
199.998
199.998
199.998
199.998
199.986
199.956
200.004
199.997
199.998
199.998
199.998
199.986
199.959
200.008
200.002
200.002
200.002
200.003
200.489
200.498
200.546
200.544
200.55
200.555
200.554
203.03
203.123
203.203
203.246
203.296
203.347
203.342
205.283
205.674
205.697
205.791
205.882
205.977
205.967
214.435
216.395
216.517
216.813
217.113
217.076
193.915
193.762
193.721
193.611
193.505
193.517
198.447
198.491
198.502
198.472
198.447
198.45
199.856
199.312
199.386
199.368
199.358
199.347
199.349
)
;

boundaryField
{
    inlet
    {
        type            calculated;
        value           nonuniform List<scalar> 0();
    }
    outlet2
    {
        type            calculated;
        value           uniform 0;
    }
    outlet1
    {
        type            calculated;
        value           uniform 0;
    }
    wall
    {
        type            calculated;
        value           uniform 0;
    }
    symmetryBottom
    {
        type            symmetry;
    }
    symmetryZ0
    {
        type            symmetry;
    }
    symmetryZ05
    {
        type            symmetry;
    }
    procBoundary0to1
    {
        type            processor;
        value           uniform 0;
    }
}


// ************************************************************************* //
