/*--------------------------------*- C++ -*----------------------------------*\
| =========                 |                                                 |
| \\      /  F ield         | OpenFOAM: The Open Source CFD Toolbox           |
|  \\    /   O peration     | Version:  2412                                  |
|   \\  /    A nd           | Website:  www.openfoam.com                      |
|    \\/     M anipulation  |                                                 |
\*---------------------------------------------------------------------------*/
FoamFile
{
    version     2.0;
    format      ascii;
    arch        "LSB;label=32;scalar=64";
    class       volVectorField;
    location    "5.6e-06";
    object      U;
}
// * * * * * * * * * * * * * * * * * * * * * * * * * * * * * * * * * * * * * //

dimensions      [0 0 0 0 0 0 0];

internalField   nonuniform List<vector> 
84
(
(2634.61 5.75486 5.78851e-15)
(2628.22 5.86262 -8.26035e-15)
(2629.64 5.94166 -1.42744e-14)
(2629.51 6.02831 8.75169e-15)
(2629.5 6.11712 -1.0792e-15)
(2629.48 6.20859 1.08078e-15)
(2629.46 6.30283 1.35389e-14)
(2629.57 6.29369 1.93171e-15)
(2636.48 -5.88661 5.56786e-15)
(2630.2 -6.07788 -7.84218e-15)
(2631.62 -6.13758 -1.73069e-14)
(2631.52 -6.23275 1.97315e-15)
(2631.54 -6.32779 -3.26494e-14)
(2631.55 -6.42596 7.26945e-15)
(2631.57 -6.52721 2.62584e-14)
(2631.67 -6.51637 5.31126e-15)
(2636.29 -5.3747 -2.28504e-14)
(2630.31 -6.74039 6.20402e-15)
(2631.51 -6.06707 1.03177e-14)
(2631.44 -6.23855 -1.08346e-15)
(2631.45 -6.32882 -4.31859e-16)
(2631.46 -6.42725 1.28811e-14)
(2631.48 -6.52854 -1.12208e-14)
(2631.58 -6.51768 -1.22599e-14)
(2636.23 -5.58099 -2.21639e-14)
(2630.05 -6.1947 1.51369e-14)
(2631.46 -6.23213 -1.49983e-15)
(2631.36 -6.33044 -2.97035e-14)
(2631.37 -6.42855 2.92811e-14)
(2631.39 -6.52989 4.93214e-15)
(2631.49 -6.51903 -1.12535e-14)
(2636.24 -5.98548 -1.40532e-14)
(2629.95 -6.16259 -5.36535e-15)
(2631.38 -6.23665 5.34921e-16)
(2631.27 -6.33352 1.63678e-16)
(2631.28 -6.43178 -1.06932e-14)
(2631.29 -6.53322 8.61063e-15)
(2631.4 -6.52235 1.84201e-14)
(2636.14 -5.77683 -8.47201e-15)
(2629.83 -5.93827 1.65121e-14)
(2631.26 -6.01351 -1.59131e-15)
(2631.15 -6.10862 1.89882e-14)
(2631.16 -6.20532 -1.73957e-14)
(2631.17 -6.30522 1.47232e-14)
(2631.28 -6.29475 -3.18363e-14)
(2635.96 -4.65095 -2.96485e-18)
(2629.6 -4.78808 1.5582e-14)
(2631.04 -4.84298 -1.54801e-15)
(2630.93 -4.9201 3.81431e-17)
(2630.94 -4.99784 1.57537e-14)
(2630.94 -5.07818 2.03351e-15)
(2631.05 -5.06981 1.55159e-14)
(2635.8 -3.50585 1.95495e-16)
(2629.53 -4.62874 2.07716e-16)
(2630.87 -4.06712 -8.13408e-17)
(2630.77 -4.19725 -2.06228e-16)
(2630.78 -4.26033 -4.29661e-17)
(2630.78 -4.32989 9.38542e-17)
(2630.89 -4.32269 -1.2947e-14)
(2635.64 -3.34547 3.06353e-14)
(2629.21 -3.70321 -3.98451e-15)
(2630.67 -3.73084 -3.3272e-14)
(2630.54 -3.79072 -1.06492e-14)
(2630.55 -3.85093 1.82445e-14)
(2630.66 -3.84474 -1.93518e-15)
(2635.74 -3.51747 -1.09268e-14)
(2629.51 -3.60324 1.43534e-15)
(2630.92 -3.64961 -1.54526e-14)
(2630.8 -3.70524 1.70943e-14)
(2630.81 -3.76196 2.85498e-14)
(2630.92 -3.75616 -2.9576e-15)
(2635.69 -3.74071 -1.54383e-14)
(2629.39 -4.14015 1.97583e-15)
(2630.81 -4.1473 -7.48612e-17)
(2630.7 -4.21458 3.02014e-14)
(2630.7 -4.28017 3.116e-14)
(2630.81 -4.27344 1.16732e-15)
(2635.59 -0.520998 -1.06242e-15)
(2629.35 -5.57153 9.70419e-17)
(2630.75 -4.84818 -4.16536e-18)
(2630.64 -4.97909 1.83557e-14)
(2630.64 -5.05237 -1.87826e-15)
(2630.64 -5.13116 1.17967e-16)
(2630.75 -5.12326 -1.53524e-14)
)
;

boundaryField
{
    inlet
    {
        type            calculated;
        value           nonuniform List<vector> 0();
    }
    outlet2
    {
        type            calculated;
        value           uniform (0 0 0);
    }
    outlet1
    {
        type            calculated;
        value           uniform (0 0 0);
    }
    wall
    {
        type            calculated;
        value           uniform (0 0 0);
    }
    symmetryBottom
    {
        type            symmetry;
    }
    symmetryZ0
    {
        type            symmetry;
    }
    symmetryZ05
    {
        type            symmetry;
    }
    procBoundary0to1
    {
        type            processor;
        value           uniform (0 0 0);
    }
}


// ************************************************************************* //
