/*--------------------------------*- C++ -*----------------------------------*\
| =========                 |                                                 |
| \\      /  F ield         | OpenFOAM: The Open Source CFD Toolbox           |
|  \\    /   O peration     | Version:  2412                                  |
|   \\  /    A nd           | Website:  www.openfoam.com                      |
|    \\/     M anipulation  |                                                 |
\*---------------------------------------------------------------------------*/
FoamFile
{
    version     2.0;
    format      ascii;
    arch        "LSB;label=32;scalar=64";
    class       volScalarField;
    location    "3e-07";
    object      E_dof0;
}
// * * * * * * * * * * * * * * * * * * * * * * * * * * * * * * * * * * * * * //

dimensions      [0 0 0 0 0 0 0];

internalField   nonuniform List<scalar> 
84
(
99.4547
97.495
97.5016
97.5017
97.5017
97.5018
97.5018
97.5322
99.733
97.7736
97.7843
97.7886
97.7931
97.7977
97.8024
97.8329
99.704
97.7457
97.7557
97.7596
97.7636
97.7677
97.772
97.8024
99.6797
97.7206
97.7306
97.7341
97.7378
97.7416
97.772
99.652
97.692
97.7015
97.7047
97.7079
97.7112
97.7416
99.6237
97.6636
97.6727
97.6754
97.6782
97.681
97.7114
99.596
97.6358
97.6446
97.6468
97.6491
97.6515
97.6819
99.568
97.6084
97.6165
97.6183
97.6202
97.6221
97.6526
99.5453
97.5851
97.5931
97.5946
97.5961
97.6265
99.5078
97.5471
97.5545
97.5553
97.5562
97.5866
99.481
97.5203
97.5273
97.5278
97.5282
97.5586
99.4241
97.4921
97.4984
97.4984
97.4984
97.4984
97.5288
)
;

boundaryField
{
    inlet
    {
        type            calculated;
        value           nonuniform List<scalar> 0();
    }
    outlet2
    {
        type            calculated;
        value           uniform 99.4306;
    }
    outlet1
    {
        type            calculated;
        value           uniform 99.4306;
    }
    wall
    {
        type            calculated;
        value           uniform 99.4306;
    }
    symmetryBottom
    {
        type            symmetry;
    }
    symmetryZ0
    {
        type            symmetry;
    }
    symmetryZ05
    {
        type            symmetry;
    }
    procBoundary0to1
    {
        type            processor;
        value           uniform 99.4306;
    }
}


// ************************************************************************* //
