/*--------------------------------*- C++ -*----------------------------------*\
| =========                 |                                                 |
| \\      /  F ield         | OpenFOAM: The Open Source CFD Toolbox           |
|  \\    /   O peration     | Version:  2412                                  |
|   \\  /    A nd           | Website:  www.openfoam.com                      |
|    \\/     M anipulation  |                                                 |
\*---------------------------------------------------------------------------*/
FoamFile
{
    version     2.0;
    format      ascii;
    arch        "LSB;label=32;scalar=64";
    class       volVectorField;
    location    "3e-07";
    object      rhoU;
}
// * * * * * * * * * * * * * * * * * * * * * * * * * * * * * * * * * * * * * //

dimensions      [0 0 0 0 0 0 0];

internalField   nonuniform List<vector> 
84
(
(0.0741232 8.97861e-06 8.34196e-21)
(0.0726709 8.97224e-06 -9.55513e-21)
(0.0726758 9.10568e-06 -2.45231e-20)
(0.0726758 9.24288e-06 1.15916e-20)
(0.0726759 9.38428e-06 2.59879e-22)
(0.0726759 9.53007e-06 1.26621e-21)
(0.072676 9.68046e-06 2.18351e-20)
(0.0726985 9.68229e-06 5.24499e-21)
(0.074329 -8.92136e-06 8.19179e-21)
(0.072877 -8.95504e-06 -9.55622e-21)
(0.0728849 -9.08834e-06 -2.88328e-20)
(0.0728881 -9.22553e-06 4.00453e-22)
(0.0728914 -9.36693e-06 -4.81053e-20)
(0.0728948 -9.51273e-06 4.82004e-21)
(0.0728983 -9.66314e-06 4.14409e-20)
(0.0729209 -9.6643e-06 1.04731e-20)
(0.0743075 -8.88914e-06 -4.32779e-20)
(0.0728563 -8.96379e-06 6.94368e-21)
(0.0728637 -9.08717e-06 1.51715e-20)
(0.0728666 -9.22433e-06 -2.07821e-22)
(0.0728696 -9.36569e-06 -1.61701e-22)
(0.0728726 -9.51145e-06 2.00949e-20)
(0.0728758 -9.66182e-06 -1.45929e-20)
(0.0728983 -9.66298e-06 -2.09558e-20)
(0.0742895 -9.02121e-06 -4.35283e-20)
(0.0728377 -9.08591e-06 1.94753e-20)
(0.0728451 -9.22313e-06 -2.20952e-22)
(0.0728477 -9.36445e-06 -4.57247e-20)
(0.0728504 -9.51017e-06 4.06303e-20)
(0.0728532 -9.6605e-06 1.17718e-20)
(0.0728758 -9.66166e-06 -1.63662e-20)
(0.074269 -9.04872e-06 -2.44668e-20)
(0.0728165 -9.08444e-06 -1.11241e-20)
(0.0728236 -9.22165e-06 3.20761e-23)
(0.0728259 -9.36293e-06 3.42214e-24)
(0.0728282 -9.50861e-06 -1.28594e-20)
(0.0728307 -9.6589e-06 1.17914e-20)
(0.0728533 -9.66006e-06 3.09402e-20)
(0.0742478 -8.5757e-06 -1.4948e-20)
(0.0727953 -8.60729e-06 2.35327e-20)
(0.072802 -8.73732e-06 -8.14672e-23)
(0.072804 -8.8712e-06 2.98998e-20)
(0.072806 -9.00925e-06 -2.61222e-20)
(0.0728081 -9.15166e-06 2.06487e-20)
(0.0728307 -9.1528e-06 -4.71494e-20)
(0.0742266 -6.92094e-06 -2.43418e-25)
(0.072774 -6.94184e-06 2.47901e-20)
(0.0727804 -7.04672e-06 -8.11643e-23)
(0.0727821 -7.15469e-06 -7.78009e-23)
(0.0727837 -7.26603e-06 2.61049e-20)
(0.0727855 -7.38088e-06 4.24023e-21)
(0.072808 -7.38187e-06 2.66011e-20)
(0.0742051 -5.80842e-06 -5.59267e-23)
(0.0727529 -5.85417e-06 -1.84347e-23)
(0.0727589 -5.93473e-06 -7.66336e-23)
(0.0727602 -6.02568e-06 -2.51028e-23)
(0.0727616 -6.11946e-06 2.12191e-23)
(0.072763 -6.2162e-06 -2.15266e-23)
(0.0727855 -6.21711e-06 -1.92114e-20)
(0.0741852 -5.38078e-06 4.86647e-20)
(0.0727326 -5.40618e-06 -1.67298e-22)
(0.0727384 -5.48915e-06 -4.9831e-20)
(0.0727394 -5.57459e-06 -2.14469e-20)
(0.0727405 -5.66273e-06 2.50429e-20)
(0.072763 -5.66364e-06 -1.38566e-23)
(0.0741643 -5.44805e-06 -2.07174e-20)
(0.0727113 -5.45434e-06 6.79168e-23)
(0.0727168 -5.5379e-06 -2.42388e-20)
(0.0727174 -5.62393e-06 2.46669e-20)
(0.0727181 -5.71266e-06 4.69077e-20)
(0.0727407 -5.71361e-06 1.50898e-25)
(0.0741428 -6.09396e-06 -2.4913e-20)
(0.0726899 -6.10654e-06 8.14848e-23)
(0.072695 -6.20013e-06 7.20366e-24)
(0.0726954 -6.29647e-06 4.62432e-20)
(0.0726957 -6.39585e-06 5.12474e-20)
(0.0727182 -6.39692e-06 5.89212e-21)
(0.0741001 -3.60602e-08 -7.7933e-23)
(0.0726686 -7.26371e-06 8.50431e-26)
(0.0726732 -7.33995e-06 0)
(0.0726732 -7.45229e-06 2.99025e-20)
(0.0726732 -7.56808e-06 -1.097e-22)
(0.0726732 -7.68752e-06 1.45887e-25)
(0.0726958 -7.68894e-06 -2.35692e-20)
)
;

boundaryField
{
    inlet
    {
        type            calculated;
        value           nonuniform List<vector> 0();
    }
    outlet2
    {
        type            calculated;
        value           uniform (0 0 0);
    }
    outlet1
    {
        type            calculated;
        value           uniform (0 0 0);
    }
    wall
    {
        type            calculated;
        value           uniform (0 0 0);
    }
    symmetryBottom
    {
        type            symmetry;
    }
    symmetryZ0
    {
        type            symmetry;
    }
    symmetryZ05
    {
        type            symmetry;
    }
    procBoundary0to1
    {
        type            processor;
        value           uniform (0 0 0);
    }
}


// ************************************************************************* //
