/*--------------------------------*- C++ -*----------------------------------*\
| =========                 |                                                 |
| \\      /  F ield         | OpenFOAM: The Open Source CFD Toolbox           |
|  \\    /   O peration     | Version:  2412                                  |
|   \\  /    A nd           | Website:  www.openfoam.com                      |
|    \\/     M anipulation  |                                                 |
\*---------------------------------------------------------------------------*/
FoamFile
{
    version     2.0;
    format      ascii;
    arch        "LSB;label=32;scalar=64";
    class       volScalarField;
    location    "2.6e-06";
    object      E_dof0;
}
// * * * * * * * * * * * * * * * * * * * * * * * * * * * * * * * * * * * * * //

dimensions      [0 0 0 0 0 0 0];

internalField   nonuniform List<scalar> 
84
(
99.0696
83.2923
83.9509
83.9343
83.9357
83.9368
83.938
84.1736
101.479
85.3631
86.0674
86.0826
86.1171
86.1523
86.1887
86.4289
101.137
85.2325
85.8453
85.8614
85.8923
85.924
85.9567
86.1964
100.937
84.9641
85.6585
85.6678
85.6962
85.7252
85.9646
100.769
84.7464
85.4381
85.444
85.4689
85.4942
85.7331
100.52
84.5323
85.2192
85.2217
85.2431
85.2648
85.5032
100.277
84.3231
85.0051
85.0043
85.0222
85.0404
85.2783
99.9861
84.1625
84.7917
84.7901
84.8046
84.8193
85.0567
99.7882
83.9412
84.6137
84.607
84.6188
84.8559
99.5135
83.6648
84.3324
84.3215
84.3289
84.5654
99.255
83.4636
84.1254
84.1112
84.1152
84.3513
98.7743
83.2795
83.9091
83.8929
83.8934
83.8936
84.1292
)
;

boundaryField
{
    inlet
    {
        type            calculated;
        value           nonuniform List<scalar> 0();
    }
    outlet2
    {
        type            calculated;
        value           uniform 99.4306;
    }
    outlet1
    {
        type            calculated;
        value           uniform 99.4306;
    }
    wall
    {
        type            calculated;
        value           uniform 99.4306;
    }
    symmetryBottom
    {
        type            symmetry;
    }
    symmetryZ0
    {
        type            symmetry;
    }
    symmetryZ05
    {
        type            symmetry;
    }
    procBoundary0to1
    {
        type            processor;
        value           uniform 99.4306;
    }
}


// ************************************************************************* //
