/*--------------------------------*- C++ -*----------------------------------*\
| =========                 |                                                 |
| \\      /  F ield         | OpenFOAM: The Open Source CFD Toolbox           |
|  \\    /   O peration     | Version:  2412                                  |
|   \\  /    A nd           | Website:  www.openfoam.com                      |
|    \\/     M anipulation  |                                                 |
\*---------------------------------------------------------------------------*/
FoamFile
{
    version     2.0;
    format      ascii;
    arch        "LSB;label=32;scalar=64";
    class       volScalarField;
    location    "2.6e-06";
    object      rho;
}
// * * * * * * * * * * * * * * * * * * * * * * * * * * * * * * * * * * * * * //

dimensions      [0 0 0 0 0 0 0];

internalField   nonuniform List<scalar> 
84
(
2.80161e-05
2.3603e-05
2.37852e-05
2.37808e-05
2.37812e-05
2.37817e-05
2.37821e-05
2.3848e-05
2.86829e-05
2.41769e-05
2.43717e-05
2.4376e-05
2.43857e-05
2.43956e-05
2.44057e-05
2.44729e-05
2.85873e-05
2.41401e-05
2.43095e-05
2.43141e-05
2.43228e-05
2.43317e-05
2.43408e-05
2.44079e-05
2.85316e-05
2.40652e-05
2.42572e-05
2.426e-05
2.42679e-05
2.4276e-05
2.4343e-05
2.84843e-05
2.40043e-05
2.41956e-05
2.41973e-05
2.42043e-05
2.42114e-05
2.42782e-05
2.84145e-05
2.3944e-05
2.41339e-05
2.41347e-05
2.41407e-05
2.41468e-05
2.42135e-05
2.83446e-05
2.38839e-05
2.40724e-05
2.40723e-05
2.40773e-05
2.40823e-05
2.41489e-05
2.82611e-05
2.3837e-05
2.40108e-05
2.40104e-05
2.40144e-05
2.40184e-05
2.40848e-05
2.81961e-05
2.37663e-05
2.39519e-05
2.395e-05
2.39531e-05
2.40194e-05
2.81413e-05
2.37079e-05
2.38926e-05
2.38898e-05
2.3892e-05
2.39581e-05
2.80635e-05
2.3647e-05
2.383e-05
2.38262e-05
2.38273e-05
2.38934e-05
2.7927e-05
2.35944e-05
2.37683e-05
2.37639e-05
2.37641e-05
2.37641e-05
2.38301e-05
)
;

boundaryField
{
    inlet
    {
        type            calculated;
        value           nonuniform List<scalar> 0();
    }
    outlet2
    {
        type            calculated;
        value           uniform 0;
    }
    outlet1
    {
        type            calculated;
        value           uniform 0;
    }
    wall
    {
        type            calculated;
        value           uniform 0;
    }
    symmetryBottom
    {
        type            symmetry;
    }
    symmetryZ0
    {
        type            symmetry;
    }
    symmetryZ05
    {
        type            symmetry;
    }
    procBoundary0to1
    {
        type            processor;
        value           uniform 0;
    }
}


// ************************************************************************* //
