/*--------------------------------*- C++ -*----------------------------------*\
| =========                 |                                                 |
| \\      /  F ield         | OpenFOAM: The Open Source CFD Toolbox           |
|  \\    /   O peration     | Version:  2412                                  |
|   \\  /    A nd           | Website:  www.openfoam.com                      |
|    \\/     M anipulation  |                                                 |
\*---------------------------------------------------------------------------*/
FoamFile
{
    version     2.0;
    format      ascii;
    arch        "LSB;label=32;scalar=64";
    class       volVectorField;
    location    "2.6e-06";
    object      rhoU_dof0;
}
// * * * * * * * * * * * * * * * * * * * * * * * * * * * * * * * * * * * * * //

dimensions      [0 0 0 0 0 0 0];

internalField   nonuniform List<vector> 
84
(
(0.0738431 7.63982e-05 7.89928e-20)
(0.062146 6.55539e-05 -7.9184e-20)
(0.0626316 6.70033e-05 -1.83518e-19)
(0.0626194 6.79861e-05 8.50677e-20)
(0.0626205 6.90119e-05 -3.53351e-21)
(0.0626214 7.00689e-05 1.01882e-20)
(0.0626224 7.11587e-05 1.70433e-19)
(0.0627971 7.13071e-05 3.78192e-20)
(0.0756257 -7.85537e-05 8.13769e-20)
(0.063679 -6.79982e-05 -7.67836e-20)
(0.0641983 -6.94735e-05 -2.21279e-19)
(0.0642097 -7.0535e-05 1.16701e-20)
(0.0642353 -7.16408e-05 -3.91278e-19)
(0.0642614 -7.27817e-05 5.74532e-20)
(0.0642884 -7.39594e-05 3.18593e-19)
(0.0644665 -7.41025e-05 6.86097e-20)
(0.0753719 -7.48176e-05 -3.65584e-19)
(0.0635817 -7.07335e-05 5.49657e-20)
(0.0640336 -6.91686e-05 1.12339e-19)
(0.0640457 -7.03733e-05 -5.96179e-21)
(0.0640686 -7.14699e-05 -2.93538e-21)
(0.0640921 -7.26054e-05 1.58843e-19)
(0.0641163 -7.37775e-05 -1.25831e-19)
(0.0642941 -7.39204e-05 -1.62009e-19)
(0.0752241 -7.65495e-05 -3.63123e-19)
(0.0633831 -6.87694e-05 1.66775e-19)
(0.063895 -7.02142e-05 -7.93257e-21)
(0.0639021 -7.12994e-05 -3.56521e-19)
(0.0639232 -7.24296e-05 3.33557e-19)
(0.0639447 -7.3596e-05 7.05905e-20)
(0.0641221 -7.37387e-05 -1.26058e-19)
(0.075099 -7.92248e-05 -1.9782e-19)
(0.0632216 -6.85421e-05 -6.84862e-20)
(0.0637316 -7.00584e-05 2.99903e-21)
(0.0637361 -7.11373e-05 8.87599e-22)
(0.0637546 -7.22624e-05 -1.14398e-19)
(0.0637734 -7.34236e-05 8.77216e-20)
(0.0639505 -7.3566e-05 2.35335e-19)
(0.0749134 -7.54964e-05 -1.22224e-19)
(0.0630615 -6.52559e-05 1.96625e-19)
(0.0635679 -6.67107e-05 -8.09708e-21)
(0.0635699 -6.7744e-05 2.3554e-19)
(0.0635857 -6.8822e-05 -2.09078e-19)
(0.0636018 -6.99346e-05 1.76236e-19)
(0.0637786 -7.00713e-05 -3.82487e-19)
(0.0747268 -6.07416e-05 -2.2756e-23)
(0.062901 -5.2477e-05 1.92946e-19)
(0.0634037 -5.36385e-05 -7.99101e-21)
(0.0634032 -5.44672e-05 -4.05143e-22)
(0.0634163 -5.53313e-05 1.97542e-19)
(0.0634297 -5.62231e-05 3.08104e-20)
(0.0636061 -5.63338e-05 2.08707e-19)
(0.0745049 -4.83484e-05 1.15907e-21)
(0.0627762 -4.65674e-05 7.8229e-22)
(0.0632398 -4.51637e-05 -6.46515e-22)
(0.0632385 -4.59819e-05 -1.06418e-21)
(0.0632491 -4.67102e-05 -1.63047e-22)
(0.0632597 -4.74651e-05 3.09967e-22)
(0.0634358 -4.75592e-05 -1.63026e-19)
(0.0743322 -4.53094e-05 4.41442e-19)
(0.0625883 -4.05062e-05 -1.75115e-20)
(0.0630833 -4.13788e-05 -3.94363e-19)
(0.0630779 -4.20223e-05 -1.45988e-19)
(0.0630861 -4.26933e-05 2.07007e-19)
(0.0632618 -4.2779e-05 -1.21182e-22)
(0.0741879 -4.66859e-05 -1.53181e-19)
(0.0624354 -4.02029e-05 6.30101e-21)
(0.062928 -4.11031e-05 -1.94084e-19)
(0.0629203 -4.17299e-05 2.03834e-19)
(0.0629261 -4.2384e-05 3.44545e-19)
(0.0631015 -4.24701e-05 -1.46915e-20)
(0.0739822 -5.08695e-05 -2.05603e-19)
(0.0622743 -4.52642e-05 8.38982e-21)
(0.0627623 -4.61954e-05 -2.21936e-23)
(0.062752 -4.69054e-05 3.49432e-19)
(0.062755 -4.7644e-05 3.75827e-19)
(0.0629301 -4.77406e-05 2.64368e-20)
(0.0736211 -3.48376e-06 -7.55875e-21)
(0.0621353 -5.65918e-05 1.98158e-22)
(0.0625993 -5.4382e-05 -3.74107e-24)
(0.0625874 -5.53146e-05 2.27551e-19)
(0.0625878 -5.61668e-05 -9.7272e-21)
(0.062588 -5.70482e-05 2.5931e-22)
(0.0627627 -5.71655e-05 -2.04894e-19)
)
;

boundaryField
{
    inlet
    {
        type            calculated;
        value           nonuniform List<vector> 0();
    }
    outlet2
    {
        type            calculated;
        value           uniform (0.0741049 0 0);
    }
    outlet1
    {
        type            calculated;
        value           uniform (0.0741049 0 0);
    }
    wall
    {
        type            calculated;
        value           uniform (0.0741049 0 0);
    }
    symmetryBottom
    {
        type            symmetry;
    }
    symmetryZ0
    {
        type            symmetry;
    }
    symmetryZ05
    {
        type            symmetry;
    }
    procBoundary0to1
    {
        type            processor;
        value           uniform (0.0741049 0 0);
    }
}


// ************************************************************************* //
