/*--------------------------------*- C++ -*----------------------------------*\
| =========                 |                                                 |
| \\      /  F ield         | OpenFOAM: The Open Source CFD Toolbox           |
|  \\    /   O peration     | Version:  2412                                  |
|   \\  /    A nd           | Website:  www.openfoam.com                      |
|    \\/     M anipulation  |                                                 |
\*---------------------------------------------------------------------------*/
FoamFile
{
    version     2.0;
    format      ascii;
    arch        "LSB;label=32;scalar=64";
    class       volScalarField;
    location    "2.6e-06";
    object      T;
}
// * * * * * * * * * * * * * * * * * * * * * * * * * * * * * * * * * * * * * //

dimensions      [0 0 0 0 0 0 0];

internalField   nonuniform List<scalar> 
84
(
201.578
201.61
201.641
201.665
201.691
201.717
201.744
201.743
199.995
199.993
200
199.999
199.999
199.999
199.999
199.999
199.99
199.993
200
199.999
199.999
199.999
199.999
199.999
199.995
199.992
200
199.999
199.999
199.999
199.999
199.996
199.993
200.001
200
200
200
200
200.279
200.289
200.299
200.303
200.307
200.311
200.311
201.42
201.464
201.491
201.513
201.537
201.561
201.559
202.461
202.582
202.61
202.651
202.693
202.736
202.733
206.548
207.04
207.141
207.257
207.377
207.369
197.26
197.187
197.153
197.107
197.06
197.063
199.324
199.327
199.323
199.312
199.301
199.301
199.964
199.712
199.721
199.716
199.712
199.707
199.707
)
;

boundaryField
{
    inlet
    {
        type            calculated;
        value           nonuniform List<scalar> 0();
    }
    outlet2
    {
        type            calculated;
        value           uniform 0;
    }
    outlet1
    {
        type            calculated;
        value           uniform 0;
    }
    wall
    {
        type            calculated;
        value           uniform 0;
    }
    symmetryBottom
    {
        type            symmetry;
    }
    symmetryZ0
    {
        type            symmetry;
    }
    symmetryZ05
    {
        type            symmetry;
    }
    procBoundary0to1
    {
        type            processor;
        value           uniform 0;
    }
}


// ************************************************************************* //
