/*--------------------------------*- C++ -*----------------------------------*\
| =========                 |                                                 |
| \\      /  F ield         | OpenFOAM: The Open Source CFD Toolbox           |
|  \\    /   O peration     | Version:  2412                                  |
|   \\  /    A nd           | Website:  www.openfoam.com                      |
|    \\/     M anipulation  |                                                 |
\*---------------------------------------------------------------------------*/
FoamFile
{
    version     2.0;
    format      ascii;
    arch        "LSB;label=32;scalar=64";
    class       volScalarField;
    location    "9.9e-06";
    object      rho_dof0;
}
// * * * * * * * * * * * * * * * * * * * * * * * * * * * * * * * * * * * * * //

dimensions      [0 0 0 0 0 0 0];

internalField   nonuniform List<scalar> 
84
(
2.89072e-05
1.40229e-05
1.51907e-05
1.51344e-05
1.5142e-05
1.51481e-05
1.51378e-05
1.53368e-05
3.10697e-05
1.5097e-05
1.63677e-05
1.63254e-05
1.63522e-05
1.63779e-05
1.63886e-05
1.65996e-05
3.06193e-05
1.51414e-05
1.62189e-05
1.61929e-05
1.62167e-05
1.62405e-05
1.62491e-05
1.64588e-05
3.02541e-05
1.4877e-05
1.60999e-05
1.60561e-05
1.60798e-05
1.60855e-05
1.62936e-05
3.0297e-05
1.47105e-05
1.59464e-05
1.58992e-05
1.59203e-05
1.59232e-05
1.61298e-05
3.00202e-05
1.45704e-05
1.5793e-05
1.57439e-05
1.57624e-05
1.57625e-05
1.59676e-05
2.97409e-05
1.44326e-05
1.56409e-05
1.55901e-05
1.5606e-05
1.56034e-05
1.5807e-05
2.93728e-05
1.43696e-05
1.5483e-05
1.54382e-05
1.54512e-05
1.54459e-05
1.5648e-05
2.90612e-05
1.41766e-05
1.53483e-05
1.52955e-05
1.52901e-05
1.54906e-05
2.89325e-05
1.40286e-05
1.5199e-05
1.51437e-05
1.51357e-05
1.53347e-05
2.86412e-05
1.38951e-05
1.50503e-05
1.49934e-05
1.49829e-05
1.51805e-05
2.80964e-05
1.38016e-05
1.48995e-05
1.48433e-05
1.48471e-05
1.48317e-05
1.50278e-05
)
;

boundaryField
{
    inlet
    {
        type            calculated;
        value           nonuniform List<scalar> 0();
    }
    outlet2
    {
        type            calculated;
        value           uniform 2.81085e-05;
    }
    outlet1
    {
        type            calculated;
        value           uniform 2.81085e-05;
    }
    wall
    {
        type            calculated;
        value           uniform 2.81085e-05;
    }
    symmetryBottom
    {
        type            symmetry;
    }
    symmetryZ0
    {
        type            symmetry;
    }
    symmetryZ05
    {
        type            symmetry;
    }
    procBoundary0to1
    {
        type            processor;
        value           uniform 2.81085e-05;
    }
}


// ************************************************************************* //
