/*--------------------------------*- C++ -*----------------------------------*\
| =========                 |                                                 |
| \\      /  F ield         | OpenFOAM: The Open Source CFD Toolbox           |
|  \\    /   O peration     | Version:  2412                                  |
|   \\  /    A nd           | Website:  www.openfoam.com                      |
|    \\/     M anipulation  |                                                 |
\*---------------------------------------------------------------------------*/
FoamFile
{
    version     2.0;
    format      ascii;
    arch        "LSB;label=32;scalar=64";
    class       volVectorField;
    location    "9.9e-06";
    object      U;
}
// * * * * * * * * * * * * * * * * * * * * * * * * * * * * * * * * * * * * * //

dimensions      [0 0 0 0 0 0 0];

internalField   nonuniform List<vector> 
84
(
(2636.4 -0.202176 1.2018e-14)
(2623.07 -0.23722 -1.306e-14)
(2626.22 -0.236912 -3.38883e-14)
(2626 -0.24445 1.71473e-14)
(2626.01 -0.251796 -1.90638e-15)
(2626.01 -0.259466 -1.3295e-15)
(2625.96 -0.268473 3.05502e-14)
(2626.23 -0.266184 2.58769e-15)
(2637.92 -10.2206 1.10265e-14)
(2624.78 -10.5467 -1.16649e-14)
(2627.91 -10.6422 -3.9338e-14)
(2627.72 -10.804 9.49066e-15)
(2627.75 -10.9657 -6.89869e-14)
(2627.77 -11.1317 8.71009e-15)
(2627.76 -11.3222 5.50485e-14)
(2628.02 -11.2827 9.69544e-15)
(2637.63 -9.56162 -5.03116e-14)
(2625.11 -12.055 1.17062e-14)
(2627.74 -10.7336 1.91172e-14)
(2627.6 -11.0295 -1.52865e-15)
(2627.63 -11.1904 -4.13957e-15)
(2627.65 -11.3633 3.03392e-14)
(2627.64 -11.5616 -2.04538e-14)
(2627.9 -11.5205 -2.44139e-14)
(2637.39 -9.28422 -5.03537e-14)
(2624.62 -11.1033 3.56335e-14)
(2627.65 -11.0146 2.42959e-15)
(2627.46 -11.196 -6.60755e-14)
(2627.5 -11.3683 5.99192e-14)
(2627.48 -11.5669 1.00786e-14)
(2627.74 -11.5257 -1.94684e-14)
(2637.54 -10.5629 -2.67547e-14)
(2624.37 -10.9042 -9.67691e-15)
(2627.5 -11.0259 8.1133e-16)
(2627.31 -11.1974 1.35701e-15)
(2627.34 -11.3701 -2.11118e-14)
(2627.32 -11.5687 1.29978e-14)
(2627.57 -11.5275 3.7531e-14)
(2637.39 -10.5898 -1.77825e-14)
(2624.22 -10.9018 3.83653e-14)
(2627.35 -11.0277 -6.41396e-15)
(2627.15 -11.199 4.44698e-14)
(2627.18 -11.3718 -4.10303e-14)
(2627.16 -11.5705 3.66596e-14)
(2627.41 -11.5293 -6.10551e-14)
(2637.25 -10.5855 -1.7186e-15)
(2624.07 -10.9131 3.59218e-14)
(2627.19 -11.0283 -2.70081e-15)
(2626.99 -11.2007 -2.45782e-15)
(2627.02 -11.3735 3.4813e-14)
(2626.99 -11.5722 1.75927e-15)
(2627.25 -11.531 3.1886e-14)
(2637.02 -9.78233 2.64456e-16)
(2624.12 -12.2893 6.42498e-16)
(2627.01 -10.902 -1.23367e-16)
(2626.84 -11.2098 -4.72044e-16)
(2626.86 -11.3749 1.23265e-16)
(2626.83 -11.574 2.28543e-15)
(2627.09 -11.5328 -2.5953e-14)
(2636.82 -9.3889 6.31773e-14)
(2623.81 -11.2868 -3.25282e-15)
(2626.89 -11.191 -6.6888e-14)
(2626.69 -11.3775 -2.4455e-14)
(2626.67 -11.5758 3.82413e-14)
(2626.93 -11.5345 -2.5039e-15)
(2636.81 -10.7398 -2.17611e-14)
(2623.61 -11.0748 6.52028e-15)
(2626.73 -11.2029 -3.79637e-14)
(2626.53 -11.3788 3.34706e-14)
(2626.51 -11.5776 6.18419e-14)
(2626.77 -11.5363 -5.83264e-15)
(2636.65 -10.0693 -2.94767e-14)
(2623.46 -11.2168 4.63439e-15)
(2626.58 -11.197 -5.18497e-15)
(2626.37 -11.3808 5.81417e-14)
(2626.34 -11.5793 6.64877e-14)
(2626.61 -11.5381 9.63815e-16)
(2636.38 -0.653194 -1.61409e-15)
(2623.41 -13.7784 2.8874e-16)
(2626.41 -10.8283 -3.41661e-15)
(2626.21 -11.2152 4.21963e-14)
(2626.22 -11.3773 -3.6269e-15)
(2626.18 -11.5769 3.14695e-15)
(2626.45 -11.536 -3.36463e-14)
)
;

boundaryField
{
    inlet
    {
        type            calculated;
        value           nonuniform List<vector> 0();
    }
    outlet2
    {
        type            calculated;
        value           uniform (0 0 0);
    }
    outlet1
    {
        type            calculated;
        value           uniform (0 0 0);
    }
    wall
    {
        type            calculated;
        value           uniform (0 0 0);
    }
    symmetryBottom
    {
        type            symmetry;
    }
    symmetryZ0
    {
        type            symmetry;
    }
    symmetryZ05
    {
        type            symmetry;
    }
    procBoundary0to1
    {
        type            processor;
        value           uniform (0 0 0);
    }
}


// ************************************************************************* //
