/*--------------------------------*- C++ -*----------------------------------*\
| =========                 |                                                 |
| \\      /  F ield         | OpenFOAM: The Open Source CFD Toolbox           |
|  \\    /   O peration     | Version:  2412                                  |
|   \\  /    A nd           | Website:  www.openfoam.com                      |
|    \\/     M anipulation  |                                                 |
\*---------------------------------------------------------------------------*/
FoamFile
{
    version     2.0;
    format      ascii;
    arch        "LSB;label=32;scalar=64";
    class       volScalarField;
    location    "4e-07";
    object      rho;
}
// * * * * * * * * * * * * * * * * * * * * * * * * * * * * * * * * * * * * * //

dimensions      [0 0 0 0 0 0 0];

internalField   nonuniform List<scalar> 
84
(
2.81085e-05
2.63512e-05
2.63722e-05
2.81085e-05
2.63516e-05
2.63725e-05
2.81085e-05
2.63515e-05
2.63725e-05
2.81085e-05
2.63515e-05
2.63725e-05
2.81085e-05
2.63515e-05
2.63725e-05
2.81085e-05
2.63515e-05
2.63725e-05
2.81085e-05
2.63515e-05
2.63725e-05
2.81085e-05
2.63515e-05
2.63725e-05
2.81085e-05
2.63515e-05
2.63725e-05
2.81085e-05
2.63515e-05
2.63725e-05
2.81085e-05
2.63515e-05
2.63725e-05
2.81085e-05
2.63514e-05
2.63724e-05
2.73982e-05
2.73931e-05
2.74031e-05
2.74951e-05
2.74909e-05
2.7501e-05
2.74852e-05
2.74809e-05
2.74909e-05
2.74753e-05
2.74709e-05
2.74721e-05
2.73908e-05
2.74654e-05
2.74609e-05
2.74619e-05
2.74721e-05
2.74555e-05
2.74509e-05
2.74518e-05
2.74619e-05
2.74456e-05
2.74409e-05
2.74417e-05
2.74518e-05
2.74357e-05
2.7431e-05
2.74315e-05
2.74417e-05
2.74258e-05
2.7421e-05
2.74214e-05
2.74219e-05
2.73909e-05
2.7416e-05
2.7411e-05
2.74113e-05
2.74116e-05
2.74219e-05
2.74061e-05
2.74011e-05
2.74012e-05
2.74014e-05
2.74117e-05
2.73962e-05
2.73911e-05
2.73911e-05
2.74012e-05
)
;

boundaryField
{
    inlet
    {
        type            calculated;
        value           uniform 0;
    }
    outlet2
    {
        type            calculated;
        value           uniform 0;
    }
    outlet1
    {
        type            calculated;
        value           nonuniform List<scalar> 0();
    }
    wall
    {
        type            calculated;
        value           uniform 0;
    }
    symmetryBottom
    {
        type            symmetry;
    }
    symmetryZ0
    {
        type            symmetry;
    }
    symmetryZ05
    {
        type            symmetry;
    }
    procBoundary1to0
    {
        type            processor;
        value           uniform 0;
    }
}


// ************************************************************************* //
