/*--------------------------------*- C++ -*----------------------------------*\
| =========                 |                                                 |
| \\      /  F ield         | OpenFOAM: The Open Source CFD Toolbox           |
|  \\    /   O peration     | Version:  2412                                  |
|   \\  /    A nd           | Website:  www.openfoam.com                      |
|    \\/     M anipulation  |                                                 |
\*---------------------------------------------------------------------------*/
FoamFile
{
    version     2.0;
    format      ascii;
    arch        "LSB;label=32;scalar=64";
    class       volScalarField;
    location    "8.9e-06";
    object      rho;
}
// * * * * * * * * * * * * * * * * * * * * * * * * * * * * * * * * * * * * * //

dimensions      [0 0 0 0 0 0 0];

internalField   nonuniform List<scalar> 
84
(
2.88218e-05
1.51835e-05
1.61486e-05
1.61079e-05
1.61144e-05
1.612e-05
1.61119e-05
1.62989e-05
3.07573e-05
1.62269e-05
1.72719e-05
1.72458e-05
1.72704e-05
1.72947e-05
1.73066e-05
1.75036e-05
3.03692e-05
1.62428e-05
1.71321e-05
1.71173e-05
1.71394e-05
1.71618e-05
1.71718e-05
1.73675e-05
3.00512e-05
1.60067e-05
1.70157e-05
1.69874e-05
1.7009e-05
1.70162e-05
1.72107e-05
3.00653e-05
1.58513e-05
1.68693e-05
1.68381e-05
1.68572e-05
1.68617e-05
1.70549e-05
2.98176e-05
1.57156e-05
1.67233e-05
1.66901e-05
1.67067e-05
1.67086e-05
1.69006e-05
2.95682e-05
1.55818e-05
1.65784e-05
1.65434e-05
1.65576e-05
1.65569e-05
1.67477e-05
2.92466e-05
1.55091e-05
1.64294e-05
1.63982e-05
1.64098e-05
1.64066e-05
1.65961e-05
2.89712e-05
1.53306e-05
1.62993e-05
1.62617e-05
1.62576e-05
1.64459e-05
2.88446e-05
1.51892e-05
1.61564e-05
1.61165e-05
1.611e-05
1.6297e-05
2.85849e-05
1.50588e-05
1.60143e-05
1.59726e-05
1.59637e-05
1.61495e-05
2.80963e-05
1.4961e-05
1.58706e-05
1.58289e-05
1.58316e-05
1.58187e-05
1.60034e-05
)
;

boundaryField
{
    inlet
    {
        type            calculated;
        value           nonuniform List<scalar> 0();
    }
    outlet2
    {
        type            calculated;
        value           uniform 0;
    }
    outlet1
    {
        type            calculated;
        value           uniform 0;
    }
    wall
    {
        type            calculated;
        value           uniform 0;
    }
    symmetryBottom
    {
        type            symmetry;
    }
    symmetryZ0
    {
        type            symmetry;
    }
    symmetryZ05
    {
        type            symmetry;
    }
    procBoundary0to1
    {
        type            processor;
        value           uniform 0;
    }
}


// ************************************************************************* //
