/*--------------------------------*- C++ -*----------------------------------*\
| =========                 |                                                 |
| \\      /  F ield         | OpenFOAM: The Open Source CFD Toolbox           |
|  \\    /   O peration     | Version:  2412                                  |
|   \\  /    A nd           | Website:  www.openfoam.com                      |
|    \\/     M anipulation  |                                                 |
\*---------------------------------------------------------------------------*/
FoamFile
{
    version     2.0;
    format      ascii;
    arch        "LSB;label=32;scalar=64";
    class       volVectorField;
    location    "8.9e-06";
    object      rhoU_dof0;
}
// * * * * * * * * * * * * * * * * * * * * * * * * * * * * * * * * * * * * * //

dimensions      [0 0 0 0 0 0 0];

internalField   nonuniform List<vector> 
84
(
(0.0759855 -4.67822e-06 3.13508e-19)
(0.0398545 -2.90859e-06 -1.7188e-19)
(0.0424257 -3.09878e-06 -4.81743e-19)
(0.0423163 -3.18756e-06 2.42682e-19)
(0.0423334 -3.28422e-06 -2.35274e-20)
(0.0423481 -3.38501e-06 -1.56317e-20)
(0.0423264 -3.49869e-06 4.31709e-19)
(0.0428215 -3.51029e-06 4.51223e-20)
(0.0811308 -0.000283253 3.05704e-19)
(0.042618 -0.000153986 -1.68991e-19)
(0.0454032 -0.00016558 -6.0289e-19)
(0.0453322 -0.000167827 1.30068e-19)
(0.0453975 -0.000170588 -1.05491e-18)
(0.0454616 -0.00017342 1.33484e-19)
(0.045493 -0.000176481 8.43883e-19)
(0.0460145 -0.000177903 1.54782e-19)
(0.0800993 -0.000263196 -1.37908e-18)
(0.0426633 -0.000173011 1.55488e-19)
(0.045033 -0.000165755 2.93443e-19)
(0.0449927 -0.000169701 -2.15701e-20)
(0.0450513 -0.000172435 -5.62841e-20)
(0.0451104 -0.00017533 4.55379e-19)
(0.0451365 -0.000178457 -3.08805e-19)
(0.0456549 -0.000179889 -3.84186e-19)
(0.079254 -0.000253702 -1.36399e-18)
(0.0420369 -0.000158992 4.86406e-19)
(0.0447256 -0.000168545 3.24426e-20)
(0.0446491 -0.000170978 -9.85259e-19)
(0.0447062 -0.000173836 8.92212e-19)
(0.044725 -0.000176911 1.57663e-19)
(0.04524 -0.000178335 -2.98146e-19)
(0.0792949 -0.000285679 -7.27091e-19)
(0.0416257 -0.000155279 -1.43818e-19)
(0.0443385 -0.000167222 1.13289e-20)
(0.0442542 -0.000169497 1.80463e-20)
(0.0443048 -0.000172311 -3.13943e-19)
(0.0443165 -0.000175332 1.93271e-19)
(0.0448282 -0.000176749 5.7302e-19)
(0.0786377 -0.000283928 -4.73991e-19)
(0.0412672 -0.000153933 5.21589e-19)
(0.0439524 -0.000165801 -8.44262e-20)
(0.0438629 -0.000168032 6.51208e-19)
(0.043907 -0.000170799 -5.97334e-19)
(0.0439118 -0.000173767 5.26924e-19)
(0.0444202 -0.000175176 -9.15329e-19)
(0.077976 -0.000281468 -4.22419e-20)
(0.0409137 -0.000152747 4.86903e-19)
(0.0435694 -0.000164379 -3.56236e-20)
(0.043475 -0.00016658 -3.24615e-20)
(0.0435128 -0.0001693 5.11696e-19)
(0.0435107 -0.000172216 3.14629e-20)
(0.0440158 -0.000173617 4.77946e-19)
(0.0771222 -0.000259177 6.45203e-21)
(0.0407229 -0.000168254 7.3384e-21)
(0.0431752 -0.000161461 -1.70624e-21)
(0.0430913 -0.00016522 -6.25284e-21)
(0.043122 -0.000167811 1.90095e-21)
(0.0431132 -0.000170679 2.94806e-20)
(0.043615 -0.000172072 -3.84413e-19)
(0.0763909 -0.000247518 1.63384e-18)
(0.0402503 -0.000154759 -3.49006e-20)
(0.0428315 -0.000164036 -9.65865e-19)
(0.0427303 -0.000166329 -3.58156e-19)
(0.0427194 -0.000169155 5.45984e-19)
(0.0432178 -0.000170541 -2.92281e-20)
(0.0760566 -0.000278615 -5.63722e-19)
(0.0398766 -0.000151128 7.5446e-20)
(0.0424537 -0.000162726 -5.39879e-19)
(0.0423465 -0.000164865 4.79319e-19)
(0.0423291 -0.000167645 8.83573e-19)
(0.0428243 -0.000169023 -7.97292e-20)
(0.0753676 -0.000260315 -7.5502e-19)
(0.0395321 -0.000151298 5.20447e-20)
(0.042078 -0.000161244 -6.56132e-20)
(0.0419661 -0.00016342 8.29158e-19)
(0.0419423 -0.000166147 9.45228e-19)
(0.0424342 -0.000167518 1.99811e-20)
(0.0740727 -1.51265e-05 -3.78379e-20)
(0.0392745 -0.000179191 2.9284e-21)
(0.0416982 -0.000155142 -4.26933e-20)
(0.0415863 -0.000159527 5.87694e-19)
(0.0415936 -0.000161913 -4.51132e-20)
(0.0415591 -0.000164584 3.90343e-20)
(0.042048 -0.000165952 -4.82568e-19)
)
;

boundaryField
{
    inlet
    {
        type            calculated;
        value           nonuniform List<vector> 0();
    }
    outlet2
    {
        type            calculated;
        value           uniform (0.0741049 0 0);
    }
    outlet1
    {
        type            calculated;
        value           uniform (0.0741049 0 0);
    }
    wall
    {
        type            calculated;
        value           uniform (0.0741049 0 0);
    }
    symmetryBottom
    {
        type            symmetry;
    }
    symmetryZ0
    {
        type            symmetry;
    }
    symmetryZ05
    {
        type            symmetry;
    }
    procBoundary0to1
    {
        type            processor;
        value           uniform (0.0741049 0 0);
    }
}


// ************************************************************************* //
