/*--------------------------------*- C++ -*----------------------------------*\
| =========                 |                                                 |
| \\      /  F ield         | OpenFOAM: The Open Source CFD Toolbox           |
|  \\    /   O peration     | Version:  2412                                  |
|   \\  /    A nd           | Website:  www.openfoam.com                      |
|    \\/     M anipulation  |                                                 |
\*---------------------------------------------------------------------------*/
FoamFile
{
    version     2.0;
    format      ascii;
    arch        "LSB;label=32;scalar=64";
    class       volVectorField;
    location    "8.9e-06";
    object      U;
}
// * * * * * * * * * * * * * * * * * * * * * * * * * * * * * * * * * * * * * //

dimensions      [0 0 0 0 0 0 0];

internalField   nonuniform List<vector> 
84
(
(2636.39 -0.162315 1.08775e-14)
(2624.85 -0.191562 -1.13202e-14)
(2627.21 -0.191891 -2.98318e-14)
(2627.06 -0.197888 1.50661e-14)
(2627.06 -0.203807 -1.46003e-15)
(2627.06 -0.209989 -9.69708e-16)
(2627.03 -0.21715 2.67944e-14)
(2627.26 -0.21537 2.76842e-15)
(2637.77 -9.20929 9.93924e-15)
(2626.38 -9.48953 -1.04142e-14)
(2628.72 -9.58667 -3.49058e-14)
(2628.6 -9.73147 7.54203e-15)
(2628.62 -9.87748 -6.10821e-14)
(2628.65 -10.0274 7.7182e-15)
(2628.64 -10.1973 4.87606e-14)
(2628.86 -10.1638 8.84288e-15)
(2637.52 -8.66653 -4.54103e-14)
(2626.59 -10.6516 9.57273e-15)
(2628.58 -9.67513 1.71283e-14)
(2628.49 -9.914 -1.26014e-15)
(2628.51 -10.0607 -3.28389e-15)
(2628.54 -10.2163 2.65345e-14)
(2628.53 -10.3925 -1.79833e-14)
(2628.75 -10.3578 -2.2121e-14)
(2637.3 -8.44234 -4.53889e-14)
(2626.21 -9.93285 3.03877e-14)
(2628.49 -9.90529 1.90663e-15)
(2628.37 -10.065 -5.79994e-14)
(2628.39 -10.2202 5.24554e-14)
(2628.38 -10.3966 9.26549e-15)
(2628.61 -10.3619 -1.73233e-14)
(2637.42 -9.50195 -2.41837e-14)
(2626.01 -9.79595 -9.07295e-15)
(2628.36 -9.91284 6.7157e-16)
(2628.23 -10.0663 1.07176e-15)
(2628.25 -10.2218 -1.86237e-14)
(2628.24 -10.3983 1.14621e-14)
(2628.46 -10.3635 3.35985e-14)
(2637.29 -9.52218 -1.58963e-14)
(2625.87 -9.79491 3.31892e-14)
(2628.22 -9.91439 -5.04843e-15)
(2628.09 -10.0678 3.90177e-14)
(2628.11 -10.2234 -3.57541e-14)
(2628.09 -10.3999 3.1536e-14)
(2628.32 -10.3651 -5.41595e-14)
(2637.16 -9.51929 -1.42863e-15)
(2625.73 -9.80289 3.12481e-14)
(2628.08 -9.91523 -2.14879e-15)
(2627.94 -10.0693 -1.96221e-15)
(2627.96 -10.2249 3.0904e-14)
(2627.95 -10.4015 1.90029e-15)
(2628.17 -10.3666 2.8538e-14)
(2636.96 -8.86177 2.20608e-16)
(2625.75 -10.8487 4.73168e-16)
(2627.92 -9.82755 -1.03853e-16)
(2627.8 -10.0755 -3.81312e-16)
(2627.82 -10.2263 1.15843e-16)
(2627.8 -10.4031 1.79688e-15)
(2628.03 -10.3682 -2.31629e-14)
(2636.79 -8.54357 5.63952e-14)
(2625.49 -10.0948 -2.27653e-15)
(2627.81 -10.064 -5.92579e-14)
(2627.67 -10.2283 -2.20246e-14)
(2627.65 -10.4046 3.35832e-14)
(2627.88 -10.3698 -1.77723e-15)
(2636.77 -9.65916 -1.95434e-14)
(2625.32 -9.9497 4.96707e-15)
(2627.67 -10.0719 -3.34157e-14)
(2627.53 -10.2296 2.97409e-14)
(2627.51 -10.4063 5.48463e-14)
(2627.74 -10.3714 -4.89226e-15)
(2636.62 -9.10673 -2.64132e-14)
(2625.18 -10.0471 3.4561e-15)
(2627.53 -10.0687 -4.09716e-15)
(2627.38 -10.2313 5.19114e-14)
(2627.36 -10.4079 5.92112e-14)
(2627.59 -10.373 1.23726e-15)
(2636.38 -0.538379 -1.34672e-15)
(2625.12 -11.9772 1.95735e-16)
(2627.38 -9.77541 -2.69008e-15)
(2627.24 -10.0782 3.71279e-14)
(2627.25 -10.2272 -2.84956e-15)
(2627.22 -10.4044 2.4676e-15)
(2627.45 -10.3698 -3.01542e-14)
)
;

boundaryField
{
    inlet
    {
        type            calculated;
        value           nonuniform List<vector> 0();
    }
    outlet2
    {
        type            calculated;
        value           uniform (0 0 0);
    }
    outlet1
    {
        type            calculated;
        value           uniform (0 0 0);
    }
    wall
    {
        type            calculated;
        value           uniform (0 0 0);
    }
    symmetryBottom
    {
        type            symmetry;
    }
    symmetryZ0
    {
        type            symmetry;
    }
    symmetryZ05
    {
        type            symmetry;
    }
    procBoundary0to1
    {
        type            processor;
        value           uniform (0 0 0);
    }
}


// ************************************************************************* //
