/*--------------------------------*- C++ -*----------------------------------*\
| =========                 |                                                 |
| \\      /  F ield         | OpenFOAM: The Open Source CFD Toolbox           |
|  \\    /   O peration     | Version:  2412                                  |
|   \\  /    A nd           | Website:  www.openfoam.com                      |
|    \\/     M anipulation  |                                                 |
\*---------------------------------------------------------------------------*/
FoamFile
{
    version     2.0;
    format      ascii;
    arch        "LSB;label=32;scalar=64";
    class       volVectorField;
    location    "5.1e-06";
    object      rhoU;
}
// * * * * * * * * * * * * * * * * * * * * * * * * * * * * * * * * * * * * * //

dimensions      [0 0 0 0 0 0 0];

internalField   nonuniform List<vector> 
84
(
(0.072831 0.000145373 1.44908e-19)
(0.0516287 0.000105208 -1.44984e-19)
(0.0533869 0.000110225 -2.71104e-19)
(0.0532936 0.000111646 1.59974e-19)
(0.0532998 0.000113311 -1.74472e-20)
(0.0533021 0.000115018 1.9345e-20)
(0.0533046 0.000116777 2.57577e-19)
(0.0536087 0.000117283 3.87173e-20)
(0.0762892 -0.000155183 1.5112e-19)
(0.0541383 -0.000113821 -1.43357e-19)
(0.0560145 -0.000118969 -3.40033e-19)
(0.055957 -0.000120679 3.53021e-20)
(0.0560046 -0.000122624 -6.4463e-19)
(0.0560495 -0.000124626 1.34946e-19)
(0.056096 -0.000126694 5.12908e-19)
(0.056412 -0.00012721 1.03627e-19)
(0.0756735 -0.000141536 -6.10745e-19)
(0.054114 -0.000124751 1.11882e-19)
(0.0557137 -0.000117238 1.98563e-19)
(0.0556785 -0.000120171 -1.89971e-20)
(0.0557201 -0.000122026 -7.83263e-21)
(0.0557604 -0.000124012 2.53216e-19)
(0.0558021 -0.00012606 -2.23345e-19)
(0.0561169 -0.000126574 -2.45495e-19)
(0.075404 -0.000146137 -5.92698e-19)
(0.0536528 -0.000114895 2.78346e-19)
(0.0554972 -0.000119693 -2.63104e-20)
(0.0554331 -0.000121431 -5.7377e-19)
(0.0554729 -0.000123401 5.61131e-19)
(0.0555097 -0.000125429 9.96175e-20)
(0.0558233 -0.000125941 -2.24869e-19)
(0.0752532 -0.000155621 -3.69791e-19)
(0.0533756 -0.000113829 -1.00605e-19)
(0.0552196 -0.000119174 9.43127e-21)
(0.055151 -0.000120872 2.88881e-21)
(0.0551863 -0.000122825 -2.1321e-19)
(0.0552184 -0.000124835 1.62089e-19)
(0.0555307 -0.000125345 3.57677e-19)
(0.074888 -0.000149216 -2.22844e-19)
(0.0531098 -0.000108971 3.02328e-19)
(0.0549411 -0.000114143 -2.76151e-20)
(0.0548686 -0.00011579 3.66503e-19)
(0.0548992 -0.000117685 -3.31401e-19)
(0.0549266 -0.000119635 2.82248e-19)
(0.0552377 -0.000120126 -6.16346e-19)
(0.07452 -0.000119591 -7.22785e-23)
(0.052844 -8.74218e-05 2.88087e-19)
(0.0546614 -9.14793e-05 -2.68523e-20)
(0.054585 -9.2799e-05 4.1142e-22)
(0.054611 -9.43078e-05 3.01476e-19)
(0.0546337 -9.58607e-05 4.08295e-20)
(0.0549436 -9.62561e-05 2.99708e-19)
(0.074026 -9.03641e-05 4.62342e-21)
(0.0527156 -8.30402e-05 3.32985e-21)
(0.0543739 -7.6548e-05 -1.43227e-21)
(0.0543082 -7.86518e-05 -3.53068e-21)
(0.0543289 -7.98816e-05 -7.43427e-22)
(0.0543471 -8.12076e-05 1.55684e-21)
(0.0546558 -8.15425e-05 -2.53281e-19)
(0.073688 -8.56245e-05 7.81094e-19)
(0.0523267 -6.69762e-05 -6.41091e-20)
(0.0541129 -6.98463e-05 -6.31726e-19)
(0.054029 -7.08522e-05 -2.11603e-19)
(0.0540461 -7.19998e-05 3.42751e-19)
(0.0543535 -7.23006e-05 -3.13317e-20)
(0.073476 -8.95359e-05 -2.8159e-19)
(0.0520836 -6.51281e-05 2.29622e-20)
(0.053866 -6.82166e-05 -2.90903e-19)
(0.0537787 -6.91473e-05 3.19617e-19)
(0.0537922 -7.02267e-05 5.36428e-19)
(0.0540983 -7.05245e-05 -5.15795e-20)
(0.073041 -9.50549e-05 -3.95972e-19)
(0.0518205 -7.4186e-05 3.12837e-20)
(0.0535823 -7.70054e-05 -1.05145e-21)
(0.0534913 -7.81082e-05 5.60245e-19)
(0.0535 -7.93388e-05 5.80867e-19)
(0.053805 -7.96739e-05 2.46833e-20)
(0.0723551 -1.20819e-05 -2.51013e-20)
(0.0516325 -9.82634e-05 1.4211e-21)
(0.0533068 -8.97449e-05 -5.70154e-23)
(0.0532187 -9.18156e-05 3.40713e-19)
(0.0532227 -9.31906e-05 -3.1607e-20)
(0.0532233 -9.46458e-05 1.79231e-21)
(0.0535272 -9.50496e-05 -2.92196e-19)
)
;

boundaryField
{
    inlet
    {
        type            calculated;
        value           nonuniform List<vector> 0();
    }
    outlet2
    {
        type            calculated;
        value           uniform (0 0 0);
    }
    outlet1
    {
        type            calculated;
        value           uniform (0 0 0);
    }
    wall
    {
        type            calculated;
        value           uniform (0 0 0);
    }
    symmetryBottom
    {
        type            symmetry;
    }
    symmetryZ0
    {
        type            symmetry;
    }
    symmetryZ05
    {
        type            symmetry;
    }
    procBoundary0to1
    {
        type            processor;
        value           uniform (0 0 0);
    }
}


// ************************************************************************* //
