/*--------------------------------*- C++ -*----------------------------------*\
| =========                 |                                                 |
| \\      /  F ield         | OpenFOAM: The Open Source CFD Toolbox           |
|  \\    /   O peration     | Version:  2412                                  |
|   \\  /    A nd           | Website:  www.openfoam.com                      |
|    \\/     M anipulation  |                                                 |
\*---------------------------------------------------------------------------*/
FoamFile
{
    version     2.0;
    format      ascii;
    arch        "LSB;label=32;scalar=64";
    class       volScalarField;
    location    "7.4e-06";
    object      E_dof0;
}
// * * * * * * * * * * * * * * * * * * * * * * * * * * * * * * * * * * * * * //

dimensions      [0 0 0 0 0 0 0];

internalField   nonuniform List<scalar> 
84
(
99.4416
10.423
34.0913
99.4849
10.4481
34.1188
99.4739
10.4451
34.1133
99.4739
10.4451
34.1133
99.4739
10.4451
34.1133
99.4739
10.4451
34.1133
99.4739
10.4451
34.1133
99.4739
10.4451
34.1133
99.4739
10.4451
34.1133
99.4739
10.4451
34.1133
99.4739
10.4451
34.1132
99.4741
10.4387
34.1107
65.8789
61.095
61.9904
70.6547
65.2242
66.2067
70.1473
64.7852
65.7522
69.6428
64.3492
64.8734
60.9543
69.1408
63.9153
64.4263
64.8935
68.6409
63.4831
63.9809
64.446
68.153
63.0605
63.5457
64.0086
67.6798
62.6503
63.1234
63.5805
67.2406
62.2638
62.7265
62.7197
61.2093
66.6463
61.7628
62.2081
62.1942
62.6702
66.1787
61.3566
61.7899
61.7722
62.42
65.7185
60.9572
61.3791
61.8299
)
;

boundaryField
{
    inlet
    {
        type            calculated;
        value           uniform 99.4306;
    }
    outlet2
    {
        type            calculated;
        value           uniform 99.4306;
    }
    outlet1
    {
        type            calculated;
        value           nonuniform List<scalar> 0();
    }
    wall
    {
        type            calculated;
        value           uniform 99.4306;
    }
    symmetryBottom
    {
        type            symmetry;
    }
    symmetryZ0
    {
        type            symmetry;
    }
    symmetryZ05
    {
        type            symmetry;
    }
    procBoundary1to0
    {
        type            processor;
        value           uniform 99.4306;
    }
}


// ************************************************************************* //
