/*--------------------------------*- C++ -*----------------------------------*\
| =========                 |                                                 |
| \\      /  F ield         | OpenFOAM: The Open Source CFD Toolbox           |
|  \\    /   O peration     | Version:  2412                                  |
|   \\  /    A nd           | Website:  www.openfoam.com                      |
|    \\/     M anipulation  |                                                 |
\*---------------------------------------------------------------------------*/
FoamFile
{
    version     2.0;
    format      ascii;
    arch        "LSB;label=32;scalar=64";
    class       volScalarField;
    location    "7.4e-06";
    object      rho_dof0;
}
// * * * * * * * * * * * * * * * * * * * * * * * * * * * * * * * * * * * * * //

dimensions      [0 0 0 0 0 0 0];

internalField   nonuniform List<scalar> 
84
(
2.81116e-05
3.16367e-06
9.7284e-06
2.81238e-05
3.17098e-06
9.73623e-06
2.81208e-05
3.17011e-06
9.73468e-06
2.81208e-05
3.17011e-06
9.73468e-06
2.81208e-05
3.17011e-06
9.73468e-06
2.81208e-05
3.17011e-06
9.73468e-06
2.81208e-05
3.17011e-06
9.73468e-06
2.81208e-05
3.17011e-06
9.73468e-06
2.81208e-05
3.17011e-06
9.73468e-06
2.81208e-05
3.17011e-06
9.73468e-06
2.81208e-05
3.17009e-06
9.73467e-06
2.81208e-05
3.16828e-06
9.73394e-06
1.87159e-05
1.73844e-05
1.76332e-05
2.00414e-05
1.85324e-05
1.8805e-05
1.98993e-05
1.84091e-05
1.86774e-05
1.97579e-05
1.82867e-05
1.84309e-05
1.73318e-05
1.96172e-05
1.81648e-05
1.83053e-05
1.84366e-05
1.94764e-05
1.80429e-05
1.81798e-05
1.83105e-05
1.93361e-05
1.79215e-05
1.80547e-05
1.81848e-05
1.91989e-05
1.78028e-05
1.79325e-05
1.80609e-05
1.90529e-05
1.76766e-05
1.78024e-05
1.78003e-05
1.74086e-05
1.89324e-05
1.75716e-05
1.76945e-05
1.7691e-05
1.78253e-05
1.87909e-05
1.74492e-05
1.75684e-05
1.75637e-05
1.77453e-05
1.86594e-05
1.73349e-05
1.74509e-05
1.75776e-05
)
;

boundaryField
{
    inlet
    {
        type            calculated;
        value           uniform 2.81085e-05;
    }
    outlet2
    {
        type            calculated;
        value           uniform 2.81085e-05;
    }
    outlet1
    {
        type            calculated;
        value           nonuniform List<scalar> 0();
    }
    wall
    {
        type            calculated;
        value           uniform 2.81085e-05;
    }
    symmetryBottom
    {
        type            symmetry;
    }
    symmetryZ0
    {
        type            symmetry;
    }
    symmetryZ05
    {
        type            symmetry;
    }
    procBoundary1to0
    {
        type            processor;
        value           uniform 2.81085e-05;
    }
}


// ************************************************************************* //
