/*--------------------------------*- C++ -*----------------------------------*\
| =========                 |                                                 |
| \\      /  F ield         | OpenFOAM: The Open Source CFD Toolbox           |
|  \\    /   O peration     | Version:  2412                                  |
|   \\  /    A nd           | Website:  www.openfoam.com                      |
|    \\/     M anipulation  |                                                 |
\*---------------------------------------------------------------------------*/
FoamFile
{
    version     2.0;
    format      ascii;
    arch        "LSB;label=32;scalar=64";
    class       volVectorField;
    location    "7.4e-06";
    object      rhoU_dof0;
}
// * * * * * * * * * * * * * * * * * * * * * * * * * * * * * * * * * * * * * //

dimensions      [0 0 0 0 0 0 0];

internalField   nonuniform List<vector> 
84
(
(0.074113 -8.06829e-07 0)
(0.00804875 -6.85501e-07 0)
(0.025525 -6.00545e-07 -1.13215e-19)
(0.0741453 -0.000155374 0)
(0.00806778 -3.30397e-05 0)
(0.0255456 -7.04103e-05 -1.13984e-19)
(0.0741372 -0.000154602 0)
(0.00806553 -3.28402e-05 0)
(0.0255415 -7.00302e-05 1.53001e-19)
(0.0741372 -0.000154602 0)
(0.00806553 -3.28401e-05 0)
(0.0255415 -7.00302e-05 -2.13319e-19)
(0.0741372 -0.000154602 0)
(0.00806553 -3.28401e-05 0)
(0.0255415 -7.00302e-05 -3.25597e-19)
(0.0741372 -0.000154602 0)
(0.00806553 -3.28401e-05 0)
(0.0255415 -7.00302e-05 2.09996e-19)
(0.0741372 -0.000154602 0)
(0.00806553 -3.28401e-05 0)
(0.0255415 -7.00302e-05 -2.42979e-19)
(0.0741372 -0.000154602 0)
(0.00806553 -3.28401e-05 0)
(0.0255415 -7.00302e-05 -2.74864e-19)
(0.0741372 -0.000154602 0)
(0.00806553 -3.28401e-05 0)
(0.0255415 -7.00302e-05 1.1394e-19)
(0.0741372 -0.000154602 0)
(0.00806553 -3.284e-05 0)
(0.0255415 -7.00302e-05 -2.43881e-19)
(0.0741372 -0.000154602 0)
(0.00806547 -3.28348e-05 0)
(0.0255415 -7.0028e-05 -6.41954e-19)
(0.0741374 -0.00015462 0)
(0.00806075 -3.23738e-05 0)
(0.0255396 -6.98407e-05 0)
(0.0492078 0.000146269 1.89373e-20)
(0.0456707 0.000126571 1.57149e-19)
(0.0463323 0.0001292 1.68117e-20)
(0.0527458 -0.000151165 1.82891e-20)
(0.0487323 -0.000142004 1.7523e-19)
(0.0494579 -0.000143751 -5.62612e-21)
(0.0523693 -0.00015016 -2.5445e-20)
(0.0484062 -0.000141082 -8.40508e-20)
(0.0491203 -0.000142609 -2.55454e-19)
(0.0519948 -0.000149126 3.32991e-20)
(0.0480823 -0.000140169 -5.56719e-21)
(0.0484678 -0.000143227 4.72773e-22)
(0.0455584 1.32056e-05 2.11832e-19)
(0.0516222 -0.000148154 -3.29155e-20)
(0.0477599 -0.000139309 1.35802e-21)
(0.0481356 -0.000142329 -2.6325e-21)
(0.0484828 -0.000143071 2.11657e-19)
(0.0512489 -0.000141982 -3.27512e-20)
(0.0474369 -0.000134023 -1.66735e-19)
(0.0478029 -0.000136916 1.5714e-20)
(0.0481485 -0.000137634 1.89359e-19)
(0.0508742 -0.000111331 3.81272e-20)
(0.0471126 -0.000107381 -4.87039e-21)
(0.0474688 -0.000109467 4.97271e-22)
(0.0478127 -0.000110055 -1.47777e-21)
(0.0505098 -9.29425e-05 4.5987e-20)
(0.0467968 -9.13348e-05 -1.70173e-19)
(0.0471437 -9.29696e-05 1.90697e-19)
(0.0474833 -9.33256e-05 3.1161e-21)
(0.0501209 -8.03835e-05 -1.84168e-20)
(0.0464588 -8.03815e-05 -2.15001e-19)
(0.0467957 -8.16482e-05 -2.04311e-19)
(0.0467897 -8.28508e-05 2.42244e-19)
(0.0457597 1.387e-05 1.38048e-18)
(0.0498076 -7.71804e-05 3.98304e-20)
(0.0461914 -7.76006e-05 -2.19e-19)
(0.0465198 -7.87218e-05 1.86512e-19)
(0.0465102 -7.98318e-05 2.97108e-19)
(0.0468659 -8.10681e-05 2.09646e-19)
(0.0494334 -8.90591e-05 1.01069e-19)
(0.0458668 -8.78162e-05 -8.61058e-21)
(0.0461855 -8.92638e-05 8.17469e-22)
(0.0461728 -9.06728e-05 -6.23502e-22)
(0.0466533 -0.000100347 -2.17975e-19)
(0.0490861 -0.000108238 1.79883e-22)
(0.0455651 -0.00010432 2.16542e-19)
(0.0458753 -0.000106248 -2.89883e-20)
(0.0462103 -0.000106756 -3.01712e-19)
)
;

boundaryField
{
    inlet
    {
        type            calculated;
        value           uniform (0.0741049 0 0);
    }
    outlet2
    {
        type            calculated;
        value           uniform (0.0741049 0 0);
    }
    outlet1
    {
        type            calculated;
        value           nonuniform List<vector> 0();
    }
    wall
    {
        type            calculated;
        value           uniform (0.0741049 0 0);
    }
    symmetryBottom
    {
        type            symmetry;
    }
    symmetryZ0
    {
        type            symmetry;
    }
    symmetryZ05
    {
        type            symmetry;
    }
    procBoundary1to0
    {
        type            processor;
        value           uniform (0.0741049 0 0);
    }
}


// ************************************************************************* //
