/*--------------------------------*- C++ -*----------------------------------*\
| =========                 |                                                 |
| \\      /  F ield         | OpenFOAM: The Open Source CFD Toolbox           |
|  \\    /   O peration     | Version:  2412                                  |
|   \\  /    A nd           | Website:  www.openfoam.com                      |
|    \\/     M anipulation  |                                                 |
\*---------------------------------------------------------------------------*/
FoamFile
{
    version     2.0;
    format      ascii;
    arch        "LSB;label=32;scalar=64";
    class       volScalarField;
    location    "7.4e-06";
    object      T;
}
// * * * * * * * * * * * * * * * * * * * * * * * * * * * * * * * * * * * * * //

dimensions      [0 0 0 0 0 0 0];

internalField   nonuniform List<scalar> 
84
(
200.015
187.76
200.406
199.965
187.541
200.309
199.952
187.512
200.291
199.952
187.512
200.291
199.952
187.512
200.291
199.952
187.512
200.291
199.952
187.512
200.291
199.952
187.512
200.291
199.952
187.512
200.291
199.952
187.512
200.291
199.952
187.511
200.291
199.952
187.433
200.282
204.718
204.38
204.422
200.025
199.982
200
200.026
199.982
200.001
200.026
199.982
199.999
200.04
200.033
199.988
200.006
200.004
200.685
200.589
200.615
200.612
204.2
203.88
203.983
203.971
207.526
206.984
207.161
207.142
222.363
220.506
221.08
221.422
197.518
191.974
192.361
192.216
192.098
191.604
198.081
198.157
198.132
198.105
198.272
199.209
199.217
199.216
199.216
)
;

boundaryField
{
    inlet
    {
        type            calculated;
        value           uniform 0;
    }
    outlet2
    {
        type            calculated;
        value           uniform 0;
    }
    outlet1
    {
        type            calculated;
        value           nonuniform List<scalar> 0();
    }
    wall
    {
        type            calculated;
        value           uniform 0;
    }
    symmetryBottom
    {
        type            symmetry;
    }
    symmetryZ0
    {
        type            symmetry;
    }
    symmetryZ05
    {
        type            symmetry;
    }
    procBoundary1to0
    {
        type            processor;
        value           uniform 0;
    }
}


// ************************************************************************* //
