/*--------------------------------*- C++ -*----------------------------------*\
| =========                 |                                                 |
| \\      /  F ield         | OpenFOAM: The Open Source CFD Toolbox           |
|  \\    /   O peration     | Version:  2412                                  |
|   \\  /    A nd           | Website:  www.openfoam.com                      |
|    \\/     M anipulation  |                                                 |
\*---------------------------------------------------------------------------*/
FoamFile
{
    version     2.0;
    format      ascii;
    arch        "LSB;label=32;scalar=64";
    class       volScalarField;
    location    "4.1e-06";
    object      rho_dof0;
}
// * * * * * * * * * * * * * * * * * * * * * * * * * * * * * * * * * * * * * //

dimensions      [0 0 0 0 0 0 0];

internalField   nonuniform List<scalar> 
84
(
2.81096e-05
1.25015e-05
1.48625e-05
2.8114e-05
1.2507e-05
1.48674e-05
2.81129e-05
1.25063e-05
1.48666e-05
2.81129e-05
1.25063e-05
1.48666e-05
2.81129e-05
1.25063e-05
1.48666e-05
2.81129e-05
1.25063e-05
1.48666e-05
2.81129e-05
1.25063e-05
1.48666e-05
2.81129e-05
1.25063e-05
1.48666e-05
2.81129e-05
1.25063e-05
1.48666e-05
2.81129e-05
1.25063e-05
1.48666e-05
2.81129e-05
1.25063e-05
1.48666e-05
2.81129e-05
1.2505e-05
1.48658e-05
2.21024e-05
2.15754e-05
2.16852e-05
2.29448e-05
2.23665e-05
2.24814e-05
2.28565e-05
2.22834e-05
2.23972e-05
2.27684e-05
2.22007e-05
2.22363e-05
2.15324e-05
2.26805e-05
2.21181e-05
2.21523e-05
2.22403e-05
2.25927e-05
2.20356e-05
2.20683e-05
2.2156e-05
2.2505e-05
2.19534e-05
2.19845e-05
2.2072e-05
2.24185e-05
2.18721e-05
2.19017e-05
2.19887e-05
2.23291e-05
2.17881e-05
2.18163e-05
2.18191e-05
2.15595e-05
2.2248e-05
2.1712e-05
2.17388e-05
2.17405e-05
2.18281e-05
2.21601e-05
2.16293e-05
2.16546e-05
2.16554e-05
2.17588e-05
2.20753e-05
2.15496e-05
2.15735e-05
2.16596e-05
)
;

boundaryField
{
    inlet
    {
        type            calculated;
        value           uniform 2.81085e-05;
    }
    outlet2
    {
        type            calculated;
        value           uniform 2.81085e-05;
    }
    outlet1
    {
        type            calculated;
        value           nonuniform List<scalar> 0();
    }
    wall
    {
        type            calculated;
        value           uniform 2.81085e-05;
    }
    symmetryBottom
    {
        type            symmetry;
    }
    symmetryZ0
    {
        type            symmetry;
    }
    symmetryZ05
    {
        type            symmetry;
    }
    procBoundary1to0
    {
        type            processor;
        value           uniform 2.81085e-05;
    }
}


// ************************************************************************* //
