/*--------------------------------*- C++ -*----------------------------------*\
| =========                 |                                                 |
| \\      /  F ield         | OpenFOAM: The Open Source CFD Toolbox           |
|  \\    /   O peration     | Version:  2412                                  |
|   \\  /    A nd           | Website:  www.openfoam.com                      |
|    \\/     M anipulation  |                                                 |
\*---------------------------------------------------------------------------*/
FoamFile
{
    version     2.0;
    format      ascii;
    arch        "LSB;label=32;scalar=64";
    class       volScalarField;
    location    "3.6e-06";
    object      rho_dof0;
}
// * * * * * * * * * * * * * * * * * * * * * * * * * * * * * * * * * * * * * //

dimensions      [0 0 0 0 0 0 0];

internalField   nonuniform List<scalar> 
84
(
2.81094e-05
1.41429e-05
1.60047e-05
2.81128e-05
1.41478e-05
1.6009e-05
2.81119e-05
1.41472e-05
1.60084e-05
2.81119e-05
1.41472e-05
1.60084e-05
2.81119e-05
1.41472e-05
1.60084e-05
2.81119e-05
1.41472e-05
1.60084e-05
2.81119e-05
1.41472e-05
1.60084e-05
2.81119e-05
1.41472e-05
1.60084e-05
2.81119e-05
1.41472e-05
1.60084e-05
2.81119e-05
1.41472e-05
1.60084e-05
2.81119e-05
1.41472e-05
1.60084e-05
2.8112e-05
1.4146e-05
1.60076e-05
2.27066e-05
2.22856e-05
2.23793e-05
2.34623e-05
2.3003e-05
2.31005e-05
2.33833e-05
2.2928e-05
2.30246e-05
2.33045e-05
2.28531e-05
2.28798e-05
2.22476e-05
2.32259e-05
2.27785e-05
2.28038e-05
2.2883e-05
2.31473e-05
2.27039e-05
2.27279e-05
2.28069e-05
2.30689e-05
2.26294e-05
2.26522e-05
2.2731e-05
2.29913e-05
2.25558e-05
2.25773e-05
2.26556e-05
2.29115e-05
2.248e-05
2.25002e-05
2.25031e-05
2.22689e-05
2.28383e-05
2.24104e-05
2.24295e-05
2.24313e-05
2.25101e-05
2.27596e-05
2.23357e-05
2.23535e-05
2.23544e-05
2.24456e-05
2.26833e-05
2.22632e-05
2.22798e-05
2.23575e-05
)
;

boundaryField
{
    inlet
    {
        type            calculated;
        value           uniform 2.81085e-05;
    }
    outlet2
    {
        type            calculated;
        value           uniform 2.81085e-05;
    }
    outlet1
    {
        type            calculated;
        value           nonuniform List<scalar> 0();
    }
    wall
    {
        type            calculated;
        value           uniform 2.81085e-05;
    }
    symmetryBottom
    {
        type            symmetry;
    }
    symmetryZ0
    {
        type            symmetry;
    }
    symmetryZ05
    {
        type            symmetry;
    }
    procBoundary1to0
    {
        type            processor;
        value           uniform 2.81085e-05;
    }
}


// ************************************************************************* //
