/*--------------------------------*- C++ -*----------------------------------*\
| =========                 |                                                 |
| \\      /  F ield         | OpenFOAM: The Open Source CFD Toolbox           |
|  \\    /   O peration     | Version:  2412                                  |
|   \\  /    A nd           | Website:  www.openfoam.com                      |
|    \\/     M anipulation  |                                                 |
\*---------------------------------------------------------------------------*/
FoamFile
{
    version     2.0;
    format      ascii;
    arch        "LSB;label=32;scalar=64";
    class       volVectorField;
    location    "3.6e-06";
    object      rhoU_dof0;
}
// * * * * * * * * * * * * * * * * * * * * * * * * * * * * * * * * * * * * * //

dimensions      [0 0 0 0 0 0 0];

internalField   nonuniform List<vector> 
84
(
(0.0741071 -2.22181e-07 0)
(0.0370947 -4.40674e-07 0)
(0.0420564 -3.71485e-07 -1.00706e-19)
(0.0741163 -8.7585e-05 0)
(0.0371074 -5.27146e-05 0)
(0.0420678 -5.78798e-05 -9.75814e-20)
(0.074114 -8.73582e-05 0)
(0.0371059 -5.25707e-05 0)
(0.0420662 -5.77234e-05 1.30367e-19)
(0.074114 -8.73582e-05 0)
(0.0371059 -5.25707e-05 0)
(0.0420662 -5.77234e-05 -1.68661e-19)
(0.074114 -8.73582e-05 0)
(0.0371059 -5.25707e-05 0)
(0.0420662 -5.77234e-05 -2.8261e-19)
(0.074114 -8.73582e-05 0)
(0.0371059 -5.25707e-05 0)
(0.0420662 -5.77234e-05 1.65496e-19)
(0.074114 -8.73582e-05 0)
(0.0371059 -5.25707e-05 0)
(0.0420662 -5.77234e-05 -2.13939e-19)
(0.074114 -8.73582e-05 0)
(0.0371059 -5.25707e-05 0)
(0.0420662 -5.77234e-05 -2.41237e-19)
(0.074114 -8.73582e-05 0)
(0.0371059 -5.25707e-05 0)
(0.0420662 -5.77234e-05 9.83533e-20)
(0.074114 -8.73582e-05 0)
(0.0371059 -5.25707e-05 0)
(0.0420662 -5.77234e-05 -2.13961e-19)
(0.074114 -8.73582e-05 0)
(0.0371059 -5.25692e-05 0)
(0.0420662 -5.77223e-05 -5.1684e-19)
(0.0741141 -8.73701e-05 0)
(0.0371029 -5.22796e-05 0)
(0.0420641 -5.75142e-05 0)
(0.0597762 8.58207e-05 6.09334e-21)
(0.0586553 8.14382e-05 9.25256e-20)
(0.0589042 8.18691e-05 9.2514e-21)
(0.061795 -8.61268e-05 5.86304e-21)
(0.0605712 -8.57228e-05 9.78236e-20)
(0.0608302 -8.59948e-05 -1.57987e-21)
(0.0615856 -8.58598e-05 -8.67737e-21)
(0.0603724 -8.54581e-05 -4.57941e-20)
(0.0606291 -8.56764e-05 -1.9652e-19)
(0.0613768 -8.5587e-05 1.11557e-20)
(0.0601742 -8.51946e-05 -1.93732e-21)
(0.0602453 -8.64978e-05 9.02448e-23)
(0.0585704 3.63908e-06 1.45747e-19)
(0.0611684 -8.53293e-05 -3.09499e-20)
(0.0599764 -8.4945e-05 3.22594e-22)
(0.0600441 -8.62405e-05 -1.49956e-21)
(0.0602539 -8.64549e-05 1.48726e-19)
(0.0609598 -8.11949e-05 -1.09374e-20)
(0.0597783 -8.10309e-05 -9.76058e-20)
(0.0598427 -8.22682e-05 2.85323e-21)
(0.0600519 -8.24742e-05 9.8712e-20)
(0.0607505 -6.44649e-05 1.31541e-20)
(0.0595796 -6.51211e-05 -8.68665e-22)
(0.0596405 -6.608e-05 -3.72713e-22)
(0.0598493 -6.6247e-05 -7.97497e-22)
(0.0605443 -5.38762e-05 1.6763e-20)
(0.0593838 -5.50469e-05 -9.45607e-20)
(0.0594413 -5.5836e-05 1.03821e-19)
(0.0596489 -5.59391e-05 1.08573e-21)
(0.0603324 -4.78976e-05 -5.95148e-21)
(0.0591822 -4.93483e-05 -1.42866e-19)
(0.0592362 -5.00277e-05 -1.36969e-19)
(0.0592437 -5.07587e-05 1.61911e-19)
(0.058626 3.86296e-06 9.04629e-19)
(0.0601401 -4.73253e-05 1.41823e-20)
(0.0590009 -4.87939e-05 -1.43906e-19)
(0.0590518 -4.94475e-05 1.01359e-19)
(0.0590566 -5.0155e-05 2.25248e-19)
(0.0592654 -5.04717e-05 1.32397e-19)
(0.0599321 -5.37595e-05 3.43012e-20)
(0.0588031 -5.4893e-05 -1.26468e-21)
(0.0588507 -5.56543e-05 2.16212e-22)
(0.0588529 -5.64922e-05 -1.44567e-22)
(0.0590945 -5.91107e-05 -1.48007e-19)
(0.0597305 -6.51041e-05 1.05374e-22)
(0.0586115 -6.56328e-05 1.38331e-19)
(0.0586559 -6.65726e-05 -7.97387e-21)
(0.0588619 -6.67235e-05 -2.2693e-19)
)
;

boundaryField
{
    inlet
    {
        type            calculated;
        value           uniform (0.0741049 0 0);
    }
    outlet2
    {
        type            calculated;
        value           uniform (0.0741049 0 0);
    }
    outlet1
    {
        type            calculated;
        value           nonuniform List<vector> 0();
    }
    wall
    {
        type            calculated;
        value           uniform (0.0741049 0 0);
    }
    symmetryBottom
    {
        type            symmetry;
    }
    symmetryZ0
    {
        type            symmetry;
    }
    symmetryZ05
    {
        type            symmetry;
    }
    procBoundary1to0
    {
        type            processor;
        value           uniform (0.0741049 0 0);
    }
}


// ************************************************************************* //
