/*--------------------------------*- C++ -*----------------------------------*\
| =========                 |                                                 |
| \\      /  F ield         | OpenFOAM: The Open Source CFD Toolbox           |
|  \\    /   O peration     | Version:  2412                                  |
|   \\  /    A nd           | Website:  www.openfoam.com                      |
|    \\/     M anipulation  |                                                 |
\*---------------------------------------------------------------------------*/
FoamFile
{
    version     2.0;
    format      ascii;
    arch        "LSB;label=32;scalar=64";
    class       volScalarField;
    location    "3.6e-06";
    object      T;
}
// * * * * * * * * * * * * * * * * * * * * * * * * * * * * * * * * * * * * * //

dimensions      [0 0 0 0 0 0 0];

internalField   nonuniform List<scalar> 
84
(
200.004
199.817
200.039
199.989
199.784
200.011
199.985
199.779
200.006
199.985
199.779
200.006
199.985
199.779
200.006
199.985
199.779
200.006
199.985
199.779
200.006
199.985
199.779
200.006
199.985
199.779
200.006
199.985
199.779
200.006
199.985
199.779
200.006
199.985
199.769
200
202.222
202.14
202.144
200.012
199.997
199.999
200.012
199.997
199.999
200.012
199.997
199.999
200.009
200.013
199.999
200.001
200.001
200.396
200.367
200.374
200.374
201.99
201.913
201.945
201.943
203.491
203.366
203.423
203.419
209.527
209.188
209.347
209.49
199.479
196.279
196.372
196.314
196.259
196.174
199.122
199.135
199.122
199.11
199.149
199.639
199.636
199.632
199.632
)
;

boundaryField
{
    inlet
    {
        type            calculated;
        value           uniform 0;
    }
    outlet2
    {
        type            calculated;
        value           uniform 0;
    }
    outlet1
    {
        type            calculated;
        value           nonuniform List<scalar> 0();
    }
    wall
    {
        type            calculated;
        value           uniform 0;
    }
    symmetryBottom
    {
        type            symmetry;
    }
    symmetryZ0
    {
        type            symmetry;
    }
    symmetryZ05
    {
        type            symmetry;
    }
    procBoundary1to0
    {
        type            processor;
        value           uniform 0;
    }
}


// ************************************************************************* //
