/*--------------------------------*- C++ -*----------------------------------*\
| =========                 |                                                 |
| \\      /  F ield         | OpenFOAM: The Open Source CFD Toolbox           |
|  \\    /   O peration     | Version:  2412                                  |
|   \\  /    A nd           | Website:  www.openfoam.com                      |
|    \\/     M anipulation  |                                                 |
\*---------------------------------------------------------------------------*/
FoamFile
{
    version     2.0;
    format      ascii;
    arch        "LSB;label=32;scalar=64";
    class       volScalarField;
    location    "3.5e-06";
    object      rho_dof0;
}
// * * * * * * * * * * * * * * * * * * * * * * * * * * * * * * * * * * * * * //

dimensions      [0 0 0 0 0 0 0];

internalField   nonuniform List<scalar> 
84
(
2.81093e-05
1.44791e-05
1.62467e-05
2.81126e-05
1.44838e-05
1.62509e-05
2.81118e-05
1.44833e-05
1.62503e-05
2.81118e-05
1.44833e-05
1.62503e-05
2.81118e-05
1.44833e-05
1.62503e-05
2.81118e-05
1.44833e-05
1.62503e-05
2.81118e-05
1.44833e-05
1.62503e-05
2.81118e-05
1.44833e-05
1.62503e-05
2.81118e-05
1.44833e-05
1.62503e-05
2.81118e-05
1.44833e-05
1.62503e-05
2.81118e-05
1.44833e-05
1.62503e-05
2.81118e-05
1.44822e-05
1.62495e-05
2.28309e-05
2.24302e-05
2.25209e-05
2.35689e-05
2.31323e-05
2.32265e-05
2.34918e-05
2.30589e-05
2.31523e-05
2.34149e-05
2.29857e-05
2.30107e-05
2.23933e-05
2.33381e-05
2.29126e-05
2.29365e-05
2.30138e-05
2.32615e-05
2.28397e-05
2.28622e-05
2.29394e-05
2.31849e-05
2.27669e-05
2.27882e-05
2.28652e-05
2.31092e-05
2.26948e-05
2.27149e-05
2.27915e-05
2.30314e-05
2.26208e-05
2.26396e-05
2.26424e-05
2.24135e-05
2.29597e-05
2.25526e-05
2.25703e-05
2.25721e-05
2.26491e-05
2.2883e-05
2.24796e-05
2.2496e-05
2.24969e-05
2.25856e-05
2.28085e-05
2.24086e-05
2.24239e-05
2.24999e-05
)
;

boundaryField
{
    inlet
    {
        type            calculated;
        value           uniform 2.81085e-05;
    }
    outlet2
    {
        type            calculated;
        value           uniform 2.81085e-05;
    }
    outlet1
    {
        type            calculated;
        value           nonuniform List<scalar> 0();
    }
    wall
    {
        type            calculated;
        value           uniform 2.81085e-05;
    }
    symmetryBottom
    {
        type            symmetry;
    }
    symmetryZ0
    {
        type            symmetry;
    }
    symmetryZ05
    {
        type            symmetry;
    }
    procBoundary1to0
    {
        type            processor;
        value           uniform 2.81085e-05;
    }
}


// ************************************************************************* //
