/*--------------------------------*- C++ -*----------------------------------*\
| =========                 |                                                 |
| \\      /  F ield         | OpenFOAM: The Open Source CFD Toolbox           |
|  \\    /   O peration     | Version:  2412                                  |
|   \\  /    A nd           | Website:  www.openfoam.com                      |
|    \\/     M anipulation  |                                                 |
\*---------------------------------------------------------------------------*/
FoamFile
{
    version     2.0;
    format      ascii;
    arch        "LSB;label=32;scalar=64";
    class       volVectorField;
    location    "3.5e-06";
    object      rhoU;
}
// * * * * * * * * * * * * * * * * * * * * * * * * * * * * * * * * * * * * * //

dimensions      [0 0 0 0 0 0 0];

internalField   nonuniform List<vector> 
84
(
(0.074107 -2.10581e-07 0)
(0.0379849 -4.29063e-07 0)
(0.0426957 -3.6266e-07 -9.99248e-20)
(0.0741157 -8.54928e-05 0)
(0.0379973 -5.2382e-05 0)
(0.0427067 -5.71458e-05 -9.68006e-20)
(0.0741135 -8.52773e-05 0)
(0.0379958 -5.22431e-05 0)
(0.0427052 -5.69956e-05 1.28025e-19)
(0.0741135 -8.52773e-05 0)
(0.0379958 -5.22431e-05 0)
(0.0427052 -5.69956e-05 -1.66317e-19)
(0.0741135 -8.52773e-05 0)
(0.0379958 -5.22431e-05 0)
(0.0427052 -5.69956e-05 -2.79486e-19)
(0.0741135 -8.52773e-05 0)
(0.0379958 -5.22431e-05 0)
(0.0427052 -5.69956e-05 1.63154e-19)
(0.0741135 -8.52773e-05 0)
(0.0379958 -5.22431e-05 0)
(0.0427052 -5.69956e-05 -2.12375e-19)
(0.0741135 -8.52773e-05 0)
(0.0379958 -5.22431e-05 0)
(0.0427052 -5.69956e-05 -2.38894e-19)
(0.0741135 -8.52773e-05 0)
(0.0379958 -5.22431e-05 0)
(0.0427052 -5.69956e-05 9.67925e-20)
(0.0741135 -8.52773e-05 0)
(0.0379958 -5.22431e-05 0)
(0.0427052 -5.69956e-05 -2.12396e-19)
(0.0741135 -8.52773e-05 0)
(0.0379958 -5.22417e-05 0)
(0.0427052 -5.69946e-05 -5.0903e-19)
(0.0741136 -8.52889e-05 0)
(0.0379929 -5.19583e-05 0)
(0.0427031 -5.67886e-05 0)
(0.0601057 8.38615e-05 5.78641e-21)
(0.0590388 7.975e-05 9.02112e-20)
(0.0592795 8.01523e-05 9.02393e-21)
(0.062077 -8.41165e-05 5.56654e-21)
(0.0609137 -8.38093e-05 9.55055e-20)
(0.0611638 -8.40638e-05 -1.49326e-21)
(0.0618727 -8.38635e-05 -8.28754e-21)
(0.0607192 -8.35582e-05 -4.46359e-20)
(0.0609672 -8.37618e-05 -1.92509e-19)
(0.0616689 -8.36051e-05 1.06551e-20)
(0.0605253 -8.3308e-05 -1.86867e-21)
(0.0605922 -8.45763e-05 8.49123e-23)
(0.0589564 3.44897e-06 1.41774e-19)
(0.0614656 -8.33609e-05 -3.06548e-20)
(0.0603319 -8.3071e-05 2.92099e-22)
(0.0603955 -8.4332e-05 -1.46381e-21)
(0.0606004 -8.45354e-05 1.44663e-19)
(0.0612619 -7.93087e-05 -1.04397e-20)
(0.0601382 -7.9226e-05 -9.53002e-20)
(0.0601985 -8.04302e-05 2.62647e-21)
(0.0604029 -8.06255e-05 9.60282e-20)
(0.0610577 -6.29915e-05 1.25158e-20)
(0.0599438 -6.36764e-05 -8.09663e-22)
(0.0600008 -6.46114e-05 -3.77902e-22)
(0.0602048 -6.47698e-05 -7.77452e-22)
(0.0608563 -5.26509e-05 1.60195e-20)
(0.0597523 -5.38181e-05 -9.21633e-20)
(0.059806 -5.45885e-05 1.01174e-19)
(0.0600088 -5.46864e-05 1.04209e-21)
(0.0606498 -4.68423e-05 -5.65863e-21)
(0.0595552 -4.82703e-05 -1.39388e-19)
(0.0596056 -4.89352e-05 -1.33867e-19)
(0.0596129 -4.965e-05 1.57881e-19)
(0.0590091 3.66264e-06 8.85948e-19)
(0.0604616 -4.63143e-05 1.35198e-20)
(0.0593775 -4.77572e-05 -1.40373e-19)
(0.0594248 -4.8398e-05 9.85514e-20)
(0.0594296 -4.90907e-05 2.22225e-19)
(0.0596336 -4.93905e-05 1.29692e-19)
(0.0602586 -5.25893e-05 3.27382e-20)
(0.0591841 -5.37187e-05 -1.16789e-21)
(0.0592281 -5.44636e-05 2.08554e-22)
(0.0592304 -5.52824e-05 -1.35e-22)
(0.0594654 -5.77632e-05 -1.43971e-19)
(0.0600617 -6.36773e-05 1.02966e-22)
(0.0589965 -6.4239e-05 1.34834e-19)
(0.0590375 -6.5157e-05 -7.5605e-21)
(0.0592388 -6.53003e-05 -2.24268e-19)
)
;

boundaryField
{
    inlet
    {
        type            calculated;
        value           uniform (0 0 0);
    }
    outlet2
    {
        type            calculated;
        value           uniform (0 0 0);
    }
    outlet1
    {
        type            calculated;
        value           nonuniform List<vector> 0();
    }
    wall
    {
        type            calculated;
        value           uniform (0 0 0);
    }
    symmetryBottom
    {
        type            symmetry;
    }
    symmetryZ0
    {
        type            symmetry;
    }
    symmetryZ05
    {
        type            symmetry;
    }
    procBoundary1to0
    {
        type            processor;
        value           uniform (0 0 0);
    }
}


// ************************************************************************* //
