/*--------------------------------*- C++ -*----------------------------------*\
| =========                 |                                                 |
| \\      /  F ield         | OpenFOAM: The Open Source CFD Toolbox           |
|  \\    /   O peration     | Version:  2412                                  |
|   \\  /    A nd           | Website:  www.openfoam.com                      |
|    \\/     M anipulation  |                                                 |
\*---------------------------------------------------------------------------*/
FoamFile
{
    version     2.0;
    format      ascii;
    arch        "LSB;label=32;scalar=64";
    class       volScalarField;
    location    "5.1e-06";
    object      E;
}
// * * * * * * * * * * * * * * * * * * * * * * * * * * * * * * * * * * * * * //

dimensions      [0 0 0 0 0 0 0];

internalField   nonuniform List<scalar> 
84
(
97.6923
69.1075
71.4913
71.3639
71.3722
71.3752
71.3786
71.7883
102.367
72.494
75.0382
74.9592
75.0234
75.0839
75.1466
75.5724
101.534
72.4636
74.6325
74.584
74.6401
74.6944
74.7506
75.1748
101.171
71.8403
74.3413
74.2533
74.307
74.3566
74.7792
100.969
71.4667
73.9673
73.8733
73.9208
73.9641
74.3851
100.479
71.1112
73.5946
73.4953
73.5367
73.5736
73.9929
99.9998
70.765
73.2301
73.1258
73.1612
73.1919
73.6097
99.3494
70.6054
72.8555
72.7659
72.7944
72.8193
73.2355
98.9626
70.1368
72.5628
72.4496
72.4743
72.8889
98.5196
69.6917
72.1063
71.9866
72.0043
72.4167
97.9702
69.3635
71.7517
71.6274
71.6391
72.05
97.0577
69.1154
71.3864
71.2662
71.2717
71.2723
71.6819
)
;

boundaryField
{
    inlet
    {
        type            calculated;
        value           nonuniform List<scalar> 0();
    }
    outlet2
    {
        type            calculated;
        value           uniform 0;
    }
    outlet1
    {
        type            calculated;
        value           uniform 0;
    }
    wall
    {
        type            calculated;
        value           uniform 0;
    }
    symmetryBottom
    {
        type            symmetry;
    }
    symmetryZ0
    {
        type            symmetry;
    }
    symmetryZ05
    {
        type            symmetry;
    }
    procBoundary0to1
    {
        type            processor;
        value           uniform 0;
    }
}


// ************************************************************************* //
