/*--------------------------------*- C++ -*----------------------------------*\
| =========                 |                                                 |
| \\      /  F ield         | OpenFOAM: The Open Source CFD Toolbox           |
|  \\    /   O peration     | Version:  2412                                  |
|   \\  /    A nd           | Website:  www.openfoam.com                      |
|    \\/     M anipulation  |                                                 |
\*---------------------------------------------------------------------------*/
FoamFile
{
    version     2.0;
    format      ascii;
    arch        "LSB;label=32;scalar=64";
    class       volScalarField;
    location    "5.1e-06";
    object      rho_dof0;
}
// * * * * * * * * * * * * * * * * * * * * * * * * * * * * * * * * * * * * * //

dimensions      [0 0 0 0 0 0 0];

internalField   nonuniform List<scalar> 
84
(
2.76417e-05
1.96375e-05
2.02975e-05
2.02628e-05
2.02652e-05
2.02662e-05
2.02673e-05
2.03822e-05
2.89355e-05
2.0578e-05
2.12818e-05
2.12606e-05
2.12786e-05
2.12955e-05
2.13131e-05
2.14324e-05
2.87038e-05
2.05681e-05
2.11684e-05
2.11554e-05
2.11711e-05
2.11864e-05
2.12021e-05
2.13209e-05
2.86021e-05
2.03945e-05
2.10865e-05
2.10628e-05
2.10778e-05
2.10917e-05
2.121e-05
2.85449e-05
2.02898e-05
2.09816e-05
2.09562e-05
2.09695e-05
2.09816e-05
2.10995e-05
2.84074e-05
2.01896e-05
2.08767e-05
2.08497e-05
2.08613e-05
2.08716e-05
2.09891e-05
2.82696e-05
2.00901e-05
2.07719e-05
2.07436e-05
2.07534e-05
2.0762e-05
2.0879e-05
2.80837e-05
2.00419e-05
2.06638e-05
2.06394e-05
2.06473e-05
2.06542e-05
2.07707e-05
2.79569e-05
1.9896e-05
2.0566e-05
2.05349e-05
2.05413e-05
2.06574e-05
2.78757e-05
1.98018e-05
2.04706e-05
2.04381e-05
2.04432e-05
2.05588e-05
2.77111e-05
1.97025e-05
2.03635e-05
2.03296e-05
2.03329e-05
2.0448e-05
2.74518e-05
1.96313e-05
2.02592e-05
2.02264e-05
2.02279e-05
2.02281e-05
2.03429e-05
)
;

boundaryField
{
    inlet
    {
        type            calculated;
        value           nonuniform List<scalar> 0();
    }
    outlet2
    {
        type            calculated;
        value           uniform 2.81085e-05;
    }
    outlet1
    {
        type            calculated;
        value           uniform 2.81085e-05;
    }
    wall
    {
        type            calculated;
        value           uniform 2.81085e-05;
    }
    symmetryBottom
    {
        type            symmetry;
    }
    symmetryZ0
    {
        type            symmetry;
    }
    symmetryZ05
    {
        type            symmetry;
    }
    procBoundary0to1
    {
        type            processor;
        value           uniform 2.81085e-05;
    }
}


// ************************************************************************* //
