/*--------------------------------*- C++ -*----------------------------------*\
| =========                 |                                                 |
| \\      /  F ield         | OpenFOAM: The Open Source CFD Toolbox           |
|  \\    /   O peration     | Version:  2412                                  |
|   \\  /    A nd           | Website:  www.openfoam.com                      |
|    \\/     M anipulation  |                                                 |
\*---------------------------------------------------------------------------*/
FoamFile
{
    version     2.0;
    format      ascii;
    arch        "LSB;label=32;scalar=64";
    class       volScalarField;
    location    "5.7e-06";
    object      E_dof0;
}
// * * * * * * * * * * * * * * * * * * * * * * * * * * * * * * * * * * * * * //

dimensions      [0 0 0 0 0 0 0];

internalField   nonuniform List<scalar> 
84
(
99.4376
26.4471
41.7142
99.4656
26.4714
41.7369
99.4585
26.4682
41.7329
99.4585
26.4682
41.7329
99.4585
26.4682
41.7329
99.4585
26.4682
41.7329
99.4585
26.4682
41.7329
99.4585
26.4682
41.7329
99.4585
26.4682
41.7329
99.4585
26.4682
41.7329
99.4585
26.4682
41.7328
99.4587
26.4627
41.7299
71.6841
68.4312
69.0404
75.6309
71.9977
72.6511
75.2164
71.6229
72.2677
74.8037
71.25
71.5307
68.2783
74.3925
70.8785
71.1506
71.5511
73.9835
70.5088
70.7725
71.1715
73.5841
70.1473
70.4028
70.8003
73.1943
69.7944
70.042
70.4358
72.836
69.4666
69.7072
69.7145
68.4413
72.3373
69.024
69.2536
69.2543
69.6538
71.9557
68.6777
68.8996
68.8965
69.4034
71.5725
68.3304
68.5447
68.9339
)
;

boundaryField
{
    inlet
    {
        type            calculated;
        value           uniform 99.4306;
    }
    outlet2
    {
        type            calculated;
        value           uniform 99.4306;
    }
    outlet1
    {
        type            calculated;
        value           nonuniform List<scalar> 0();
    }
    wall
    {
        type            calculated;
        value           uniform 99.4306;
    }
    symmetryBottom
    {
        type            symmetry;
    }
    symmetryZ0
    {
        type            symmetry;
    }
    symmetryZ05
    {
        type            symmetry;
    }
    procBoundary1to0
    {
        type            processor;
        value           uniform 99.4306;
    }
}


// ************************************************************************* //
