/*--------------------------------*- C++ -*----------------------------------*\
| =========                 |                                                 |
| \\      /  F ield         | OpenFOAM: The Open Source CFD Toolbox           |
|  \\    /   O peration     | Version:  2412                                  |
|   \\  /    A nd           | Website:  www.openfoam.com                      |
|    \\/     M anipulation  |                                                 |
\*---------------------------------------------------------------------------*/
FoamFile
{
    version     2.0;
    format      ascii;
    arch        "LSB;label=32;scalar=64";
    class       volVectorField;
    location    "3.2e-06";
    object      rhoU_dof0;
}
// * * * * * * * * * * * * * * * * * * * * * * * * * * * * * * * * * * * * * //

dimensions      [0 0 0 0 0 0 0];

internalField   nonuniform List<vector> 
84
(
(0.0741067 -1.77302e-07 0)
(0.0406988 -3.93194e-07 0)
(0.0446882 -3.35285e-07 -9.36789e-20)
(0.074114 -7.91099e-05 0)
(0.0407101 -5.10584e-05 0)
(0.0446984 -5.47353e-05 -9.05549e-20)
(0.0741122 -7.89267e-05 0)
(0.0407088 -5.09348e-05 0)
(0.044697 -5.46037e-05 1.2178e-19)
(0.0741122 -7.89267e-05 0)
(0.0407088 -5.09348e-05 0)
(0.044697 -5.46037e-05 -1.59283e-19)
(0.0741122 -7.89267e-05 0)
(0.0407088 -5.09348e-05 0)
(0.044697 -5.46037e-05 -2.68554e-19)
(0.0741122 -7.89267e-05 0)
(0.0407088 -5.09348e-05 0)
(0.044697 -5.46037e-05 1.54567e-19)
(0.0741122 -7.89267e-05 0)
(0.0407088 -5.09348e-05 0)
(0.044697 -5.46037e-05 -1.99877e-19)
(0.0741122 -7.89267e-05 0)
(0.0407088 -5.09348e-05 0)
(0.044697 -5.46037e-05 -2.31084e-19)
(0.0741122 -7.89267e-05 0)
(0.0407088 -5.09348e-05 0)
(0.044697 -5.46037e-05 9.05486e-20)
(0.0741122 -7.89267e-05 0)
(0.0407088 -5.09348e-05 0)
(0.044697 -5.46037e-05 -1.99893e-19)
(0.0741122 -7.89268e-05 0)
(0.0407088 -5.09336e-05 0)
(0.044697 -5.46028e-05 -4.8404e-19)
(0.0741123 -7.89376e-05 0)
(0.0407061 -5.06695e-05 0)
(0.044695 -5.44043e-05 0)
(0.0611139 7.78541e-05 4.89539e-21)
(0.0602035 7.4509e-05 8.32185e-20)
(0.0604205 7.48324e-05 8.33198e-21)
(0.0629401 -7.79759e-05 4.70677e-21)
(0.0619514 -7.79216e-05 8.85046e-20)
(0.0621759 -7.8128e-05 -1.24473e-21)
(0.0627512 -7.77629e-05 -7.15359e-21)
(0.0617705 -7.77092e-05 -4.11349e-20)
(0.0619933 -7.78732e-05 -1.80487e-19)
(0.0625628 -7.75457e-05 9.19215e-21)
(0.0615901 -7.74975e-05 -1.66975e-21)
(0.0616452 -7.86622e-05 7.00531e-23)
(0.060129 2.90358e-06 1.29853e-19)
(0.0623747 -7.734e-05 -2.96993e-20)
(0.06141 -7.72967e-05 2.03094e-22)
(0.0614622 -7.84553e-05 -1.35471e-21)
(0.0616523 -7.8627e-05 1.33814e-19)
(0.0621864 -7.35445e-05 -8.99262e-21)
(0.0612297 -7.3671e-05 -8.8334e-20)
(0.0612789 -7.4777e-05 1.99024e-21)
(0.0614686 -7.49418e-05 8.79822e-20)
(0.0619975 -5.84817e-05 1.06699e-20)
(0.0610488 -5.92281e-05 -6.46252e-22)
(0.061095 -6.00915e-05 -3.88996e-22)
(0.0612843 -6.02252e-05 -7.16623e-22)
(0.0618111 -4.88997e-05 1.38233e-20)
(0.0608704 -5.00377e-05 -8.62628e-20)
(0.0609136 -5.07518e-05 9.4553e-20)
(0.0611019 -5.08346e-05 9.15679e-22)
(0.0616204 -4.36e-05 -4.80991e-21)
(0.0606874 -4.49454e-05 -1.2889e-19)
(0.0607276 -4.55661e-05 -1.24434e-19)
(0.0607347 -4.62308e-05 1.45786e-19)
(0.0601735 3.08754e-06 8.27201e-19)
(0.0614452 -4.31964e-05 1.15996e-20)
(0.0605207 -4.45494e-05 -1.29722e-19)
(0.0605581 -4.51505e-05 9.01451e-20)
(0.0605628 -4.5797e-05 2.10348e-19)
(0.0607522 -4.60489e-05 1.21574e-19)
(0.0612575 -4.89879e-05 2.81772e-20)
(0.0603408 -5.00879e-05 -9.04668e-22)
(0.0603753 -5.07826e-05 1.86883e-22)
(0.0603776 -5.15428e-05 -1.07253e-22)
(0.060593 -5.36293e-05 -1.33207e-19)
(0.0610749 -5.92885e-05 9.55835e-23)
(0.0601657 -5.99257e-05 1.24278e-19)
(0.0601974 -6.07777e-05 -6.38174e-21)
(0.0603844 -6.08991e-05 -2.16283e-19)
)
;

boundaryField
{
    inlet
    {
        type            calculated;
        value           uniform (0.0741049 0 0);
    }
    outlet2
    {
        type            calculated;
        value           uniform (0.0741049 0 0);
    }
    outlet1
    {
        type            calculated;
        value           nonuniform List<vector> 0();
    }
    wall
    {
        type            calculated;
        value           uniform (0.0741049 0 0);
    }
    symmetryBottom
    {
        type            symmetry;
    }
    symmetryZ0
    {
        type            symmetry;
    }
    symmetryZ05
    {
        type            symmetry;
    }
    procBoundary1to0
    {
        type            processor;
        value           uniform (0.0741049 0 0);
    }
}


// ************************************************************************* //
