/*--------------------------------*- C++ -*----------------------------------*\
| =========                 |                                                 |
| \\      /  F ield         | OpenFOAM: The Open Source CFD Toolbox           |
|  \\    /   O peration     | Version:  2412                                  |
|   \\  /    A nd           | Website:  www.openfoam.com                      |
|    \\/     M anipulation  |                                                 |
\*---------------------------------------------------------------------------*/
FoamFile
{
    version     2.0;
    format      ascii;
    arch        "LSB;label=32;scalar=64";
    class       volScalarField;
    location    "4.7e-06";
    object      rho_dof0;
}
// * * * * * * * * * * * * * * * * * * * * * * * * * * * * * * * * * * * * * //

dimensions      [0 0 0 0 0 0 0];

internalField   nonuniform List<scalar> 
84
(
2.77175e-05
2.02483e-05
2.0815e-05
2.07877e-05
2.07896e-05
2.07905e-05
2.07915e-05
2.08994e-05
2.89126e-05
2.11413e-05
2.17449e-05
2.17307e-05
2.17472e-05
2.17632e-05
2.17797e-05
2.18914e-05
2.8705e-05
2.11233e-05
2.16395e-05
2.16314e-05
2.1646e-05
2.16604e-05
2.16752e-05
2.17865e-05
2.86101e-05
2.09671e-05
2.15608e-05
2.15442e-05
2.1558e-05
2.15711e-05
2.1682e-05
2.85525e-05
2.08685e-05
2.1462e-05
2.14438e-05
2.14559e-05
2.14674e-05
2.15779e-05
2.84258e-05
2.07736e-05
2.1363e-05
2.13434e-05
2.13539e-05
2.13637e-05
2.14738e-05
2.82988e-05
2.06793e-05
2.12643e-05
2.12433e-05
2.12522e-05
2.12603e-05
2.137e-05
2.81304e-05
2.06285e-05
2.11631e-05
2.11449e-05
2.1152e-05
2.11585e-05
2.12678e-05
2.80134e-05
2.0495e-05
2.10704e-05
2.10466e-05
2.10524e-05
2.11613e-05
2.79349e-05
2.04055e-05
2.09796e-05
2.09545e-05
2.0959e-05
2.10675e-05
2.77847e-05
2.0311e-05
2.08787e-05
2.08522e-05
2.0855e-05
2.09631e-05
2.75445e-05
2.02409e-05
2.07804e-05
2.07545e-05
2.07557e-05
2.07558e-05
2.08636e-05
)
;

boundaryField
{
    inlet
    {
        type            calculated;
        value           nonuniform List<scalar> 0();
    }
    outlet2
    {
        type            calculated;
        value           uniform 2.81085e-05;
    }
    outlet1
    {
        type            calculated;
        value           uniform 2.81085e-05;
    }
    wall
    {
        type            calculated;
        value           uniform 2.81085e-05;
    }
    symmetryBottom
    {
        type            symmetry;
    }
    symmetryZ0
    {
        type            symmetry;
    }
    symmetryZ05
    {
        type            symmetry;
    }
    procBoundary0to1
    {
        type            processor;
        value           uniform 2.81085e-05;
    }
}


// ************************************************************************* //
