/*--------------------------------*- C++ -*----------------------------------*\
| =========                 |                                                 |
| \\      /  F ield         | OpenFOAM: The Open Source CFD Toolbox           |
|  \\    /   O peration     | Version:  2412                                  |
|   \\  /    A nd           | Website:  www.openfoam.com                      |
|    \\/     M anipulation  |                                                 |
\*---------------------------------------------------------------------------*/
FoamFile
{
    version     2.0;
    format      ascii;
    arch        "LSB;label=32;scalar=64";
    class       volScalarField;
    location    "8.31363e-07";
    object      E;
}
// * * * * * * * * * * * * * * * * * * * * * * * * * * * * * * * * * * * * * //

dimensions      [0 0 0 0 0 0 0];

internalField   nonuniform List<scalar> 
625
(
100.546
86.9754
86.9754
100.548
86.9769
86.9769
100.546
86.9754
86.9754
100.546
86.9754
86.9754
100.546
86.9754
86.9754
100.546
86.9754
86.9754
100.546
86.9754
86.9754
100.546
86.9754
86.9754
100.546
86.9754
86.9754
100.546
86.9754
86.9754
100.546
86.9754
86.9754
100.546
86.9754
86.9754
100.546
86.9754
86.9754
100.546
86.9754
86.9754
100.546
86.9754
86.9754
100.546
86.9754
86.9754
100.546
86.9754
86.9754
100.546
86.9754
86.9754
100.546
86.9754
86.9754
100.546
86.9754
86.9754
100.546
86.9754
86.9754
100.546
86.9754
86.9754
100.546
86.9754
86.9754
100.546
86.9754
86.9754
100.547
86.9725
86.9726
88.9606
88.9594
88.9582
88.9569
88.9557
88.9544
88.9531
88.9518
88.9505
88.9492
88.9479
88.9465
88.9451
88.9437
88.9423
88.9409
88.9395
88.938
88.9365
88.935
88.9335
89.0104
90.747
90.7581
90.7695
90.7809
90.7926
90.8044
90.8164
90.8286
90.8409
90.8535
90.8662
90.8791
90.8922
90.9056
90.9191
90.9328
90.9468
90.9609
90.9754
90.99
91.0049
91.0834
90.6598
90.6702
90.6808
90.6915
90.7024
90.7134
90.7246
90.7359
90.7475
90.7592
90.771
90.7831
90.7953
90.8077
90.8203
90.8331
90.8461
90.8593
90.8727
90.8863
90.9001
90.9786
90.5915
90.6015
90.6115
90.6218
90.6321
90.6427
90.6533
90.6642
90.6752
90.6863
90.6976
90.7091
90.7208
90.7326
90.7446
90.7568
90.7692
90.7818
90.7946
90.8076
90.8208
90.8992
90.5233
90.5327
90.5423
90.5521
90.562
90.572
90.5821
90.5924
90.6029
90.6135
90.6243
90.6352
90.6463
90.6576
90.669
90.6807
90.6925
90.7044
90.7166
90.729
90.7415
90.8199
90.4551
90.4641
90.4732
90.4824
90.4918
90.5013
90.511
90.5208
90.5307
90.5408
90.551
90.5614
90.5719
90.5826
90.5935
90.6045
90.6157
90.6271
90.6387
90.6504
90.6623
90.7406
90.3869
90.3954
90.4041
90.4128
90.4217
90.4307
90.4399
90.4491
90.4585
90.4681
90.4778
90.4876
90.4976
90.5077
90.518
90.5284
90.5391
90.5498
90.5608
90.5719
90.5832
90.6614
90.3188
90.3268
90.335
90.3433
90.3516
90.3602
90.3688
90.3775
90.3864
90.3954
90.4046
90.4139
90.4233
90.4328
90.4426
90.4524
90.4624
90.4726
90.4829
90.4934
90.5041
90.5823
90.2507
90.2583
90.266
90.2737
90.2816
90.2896
90.2978
90.306
90.3143
90.3228
90.3314
90.3402
90.349
90.358
90.3672
90.3764
90.3859
90.3954
90.4052
90.415
90.4251
90.5032
90.1827
90.1898
90.197
90.2043
90.2117
90.2192
90.2268
90.2345
90.2423
90.2503
90.2583
90.2665
90.2748
90.2833
90.2918
90.3005
90.3094
90.3183
90.3274
90.3367
90.3461
90.4241
90.1149
90.1215
90.1282
90.135
90.1419
90.1489
90.156
90.1632
90.1705
90.1779
90.1855
90.1931
90.2009
90.2087
90.2167
90.2248
90.2331
90.2414
90.2499
90.2586
90.2674
90.3453
90.0471
90.0532
90.0595
90.0658
90.0722
90.0787
90.0853
90.092
90.0988
90.1056
90.1126
90.1197
90.1269
90.1342
90.1417
90.1492
90.1568
90.1646
90.1725
90.1805
90.1887
90.2666
89.9793
89.985
89.9908
89.9966
90.0025
90.0085
90.0146
90.0208
90.027
90.0334
90.0398
90.0464
90.053
90.0598
90.0666
90.0736
90.0807
90.0878
90.0951
90.1025
90.1101
90.1879
89.9116
89.9168
89.9221
89.9275
89.9329
89.9384
89.944
89.9496
89.9554
89.9612
89.9671
89.9731
89.9792
89.9854
89.9917
89.9981
90.0045
90.0111
90.0178
90.0246
90.0315
90.1093
89.844
89.8487
89.8535
89.8584
89.8633
89.8683
89.8734
89.8785
89.8838
89.8891
89.8944
89.8999
89.9054
89.9111
89.9168
89.9226
89.9285
89.9345
89.9405
89.9467
89.953
90.0307
89.7764
89.7806
89.785
89.7893
89.7938
89.7983
89.8029
89.8075
89.8122
89.817
89.8218
89.8267
89.8317
89.8368
89.8419
89.8472
89.8525
89.8579
89.8633
89.8689
89.8745
89.9522
89.7088
89.7126
89.7164
89.7203
89.7243
89.7283
89.7324
89.7365
89.7407
89.7449
89.7492
89.7536
89.7581
89.7626
89.7671
89.7718
89.7765
89.7813
89.7862
89.7911
89.7962
89.8738
89.6413
89.6446
89.648
89.6514
89.6549
89.6584
89.6619
89.6655
89.6692
89.6729
89.6767
89.6805
89.6844
89.6884
89.6924
89.6965
89.7006
89.7048
89.7091
89.7134
89.7178
89.7954
89.5738
89.5767
89.5796
89.5825
89.5855
89.5885
89.5915
89.5946
89.5978
89.601
89.6042
89.6075
89.6109
89.6143
89.6177
89.6212
89.6248
89.6284
89.6321
89.6358
89.6396
89.7171
89.5064
89.5088
89.5112
89.5136
89.5161
89.5186
89.5212
89.5238
89.5264
89.5291
89.5318
89.5346
89.5374
89.5402
89.5431
89.546
89.549
89.552
89.5551
89.5582
89.5614
89.6388
89.439
89.4409
89.4428
89.4448
89.4468
89.4488
89.4509
89.453
89.4551
89.4573
89.4594
89.4617
89.4639
89.4662
89.4685
89.4709
89.4733
89.4757
89.4782
89.4807
89.4832
89.5606
89.3716
89.3731
89.3746
89.376
89.3776
89.3791
89.3807
89.3822
89.3838
89.3855
89.3871
89.3888
89.3905
89.3922
89.394
89.3958
89.3976
89.3994
89.4013
89.4032
89.4051
89.4824
89.3043
89.3053
89.3063
89.3073
89.3084
89.3094
89.3105
89.3115
89.3126
89.3137
89.3149
89.316
89.3171
89.3183
89.3195
89.3207
89.322
89.3232
89.3245
89.3258
89.3271
89.4043
89.2371
89.2376
89.2381
89.2387
89.2392
89.2398
89.2403
89.2409
89.2415
89.242
89.2426
89.2432
89.2439
89.2445
89.2451
89.2458
89.2464
89.2471
89.2477
89.2484
89.2491
89.3263
89.1673
89.1674
89.1674
89.1674
89.1675
89.1675
89.1676
89.1676
89.1676
89.1677
89.1677
89.1678
89.1678
89.1679
89.1679
89.168
89.168
89.1681
89.1681
89.1682
89.1683
89.2455
)
;

boundaryField
{
    inlet
    {
        type            calculated;
        value           uniform 0;
    }
    outlet2
    {
        type            calculated;
        value           uniform 0;
    }
    outlet1
    {
        type            calculated;
        value           uniform 0;
    }
    wall
    {
        type            calculated;
        value           uniform 0;
    }
    symmetryBottom
    {
        type            symmetry;
    }
    symmetryZ0
    {
        type            symmetry;
    }
    symmetryZ05
    {
        type            symmetry;
    }
}


// ************************************************************************* //
