/*--------------------------------*- C++ -*----------------------------------*\
| =========                 |                                                 |
| \\      /  F ield         | OpenFOAM: The Open Source CFD Toolbox           |
|  \\    /   O peration     | Version:  2412                                  |
|   \\  /    A nd           | Website:  www.openfoam.com                      |
|    \\/     M anipulation  |                                                 |
\*---------------------------------------------------------------------------*/
FoamFile
{
    version     2.0;
    format      ascii;
    arch        "LSB;label=32;scalar=64";
    class       volScalarField;
    location    "8.31363e-07";
    object      E_dof1;
}
// * * * * * * * * * * * * * * * * * * * * * * * * * * * * * * * * * * * * * //

dimensions      [0 0 0 0 0 0 0];

internalField   nonuniform List<scalar> 
625
(
36.3414
-1.20764e-06
-0.0170654
36.3417
-1.20763e-06
-0.00385968
36.3418
-1.20765e-06
-0.00828227
36.3418
-1.20765e-06
-0.00826914
36.3418
-1.20765e-06
-0.00826916
36.3418
-1.20765e-06
-0.00826916
36.3418
-1.20765e-06
-0.00826916
36.3418
-1.20765e-06
-0.00826916
36.3418
-1.20765e-06
-0.00826916
36.3418
-1.20765e-06
-0.00826916
36.3418
-1.20765e-06
-0.00826916
36.3418
-1.20765e-06
-0.00826916
36.3418
-1.20765e-06
-0.00826916
36.3418
-1.20765e-06
-0.00826916
36.3418
-1.20765e-06
-0.00826916
36.3418
-1.20765e-06
-0.00826916
36.3418
-1.20765e-06
-0.00826916
36.3418
-1.20765e-06
-0.00826916
36.3418
-1.20765e-06
-0.00826916
36.3418
-1.20765e-06
-0.00826916
36.3418
-1.20765e-06
-0.00826916
36.3418
-1.20765e-06
-0.00826916
36.3418
-1.20765e-06
-0.00826895
36.3418
-1.20765e-06
-0.00839914
36.3502
-1.20813e-06
-0.000636751
-0.0908292
-0.0914547
-0.0920889
-0.0927319
-0.093384
-0.0940453
-0.094716
-0.0953964
-0.0960866
-0.0967868
-0.0974974
-0.0982185
-0.0989503
-0.0996931
-0.100447
-0.101213
-0.10199
-0.102779
-0.103581
-0.104395
-0.105222
-6.28534
-0.0925335
-0.0931827
-0.093841
-0.0945087
-0.095186
-0.0958731
-0.0965702
-0.0972774
-0.0979951
-0.0987236
-0.0994628
-0.100213
-0.100975
-0.101749
-0.102534
-0.103332
-0.104142
-0.104965
-0.105801
-0.10665
-0.107514
0.173006
-0.0924723
-0.0931206
-0.0937781
-0.094445
-0.0951213
-0.0958074
-0.0965036
-0.0972099
-0.0979266
-0.0986539
-0.0993922
-0.100142
-0.100902
-0.101675
-0.102459
-0.103256
-0.104065
-0.104886
-0.105721
-0.106569
-0.107431
0.0975159
-0.0924115
-0.093059
-0.0937156
-0.0943816
-0.095057
-0.0957422
-0.0964374
-0.0971428
-0.0978585
-0.0985848
-0.0993221
-0.10007
-0.10083
-0.101601
-0.102385
-0.10318
-0.103988
-0.104808
-0.105642
-0.106489
-0.10735
0.0982425
-0.0923507
-0.0929974
-0.0936531
-0.0943182
-0.0949928
-0.0956771
-0.0963713
-0.0970757
-0.0977904
-0.0985158
-0.0992519
-0.0999992
-0.100758
-0.101528
-0.10231
-0.103104
-0.103911
-0.10473
-0.105563
-0.106408
-0.107268
0.0989892
-0.09229
-0.0929358
-0.0935907
-0.0942549
-0.0949286
-0.0956119
-0.0963052
-0.0970086
-0.0977224
-0.0984467
-0.0991819
-0.0999281
-0.100686
-0.101455
-0.102236
-0.103029
-0.103834
-0.104652
-0.105483
-0.106328
-0.107186
0.0997524
-0.0922293
-0.0928743
-0.0935283
-0.0941916
-0.0948644
-0.0955468
-0.0962392
-0.0969416
-0.0976544
-0.0983777
-0.0991119
-0.099857
-0.100613
-0.101381
-0.102161
-0.102953
-0.103757
-0.104574
-0.105404
-0.106248
-0.107104
0.100535
-0.0921687
-0.0928127
-0.0934659
-0.0941283
-0.0948002
-0.0954818
-0.0961731
-0.0968746
-0.0975864
-0.0983087
-0.0990419
-0.099786
-0.100541
-0.101308
-0.102087
-0.102878
-0.103681
-0.104497
-0.105325
-0.106167
-0.107023
0.101336
-0.092108
-0.0927513
-0.0934036
-0.0940651
-0.0947361
-0.0954167
-0.0961072
-0.0968077
-0.0975185
-0.0982399
-0.0989719
-0.099715
-0.100469
-0.101235
-0.102013
-0.102802
-0.103604
-0.104419
-0.105246
-0.106087
-0.106941
0.102157
-0.0920474
-0.0926898
-0.0933412
-0.0940019
-0.0946719
-0.0953517
-0.0960411
-0.0967408
-0.0974506
-0.0981709
-0.098902
-0.099644
-0.100397
-0.101162
-0.101938
-0.102727
-0.103528
-0.104341
-0.105167
-0.106007
-0.10686
0.10298
-0.0919856
-0.0926271
-0.0932776
-0.0939374
-0.0946066
-0.0952853
-0.0959739
-0.0966725
-0.0973813
-0.0981007
-0.0988307
-0.0995716
-0.100324
-0.101087
-0.101863
-0.10265
-0.10345
-0.104262
-0.105087
-0.105925
-0.106776
0.103271
-0.0919238
-0.0925644
-0.0932142
-0.093873
-0.0945412
-0.095219
-0.0959067
-0.0966043
-0.0973122
-0.0980304
-0.0987594
-0.0994993
-0.10025
-0.101013
-0.101787
-0.102573
-0.103371
-0.104182
-0.105006
-0.105843
-0.106693
0.103531
-0.091862
-0.0925019
-0.0931506
-0.0938086
-0.0944759
-0.0951529
-0.0958395
-0.0965361
-0.0972429
-0.0979603
-0.0986881
-0.099427
-0.100177
-0.100938
-0.101711
-0.102496
-0.103294
-0.104103
-0.104926
-0.105761
-0.10661
0.103798
-0.0918003
-0.0924392
-0.0930872
-0.0937443
-0.0944107
-0.0950866
-0.0957723
-0.096468
-0.0971738
-0.0978901
-0.098617
-0.0993547
-0.100104
-0.100864
-0.101636
-0.10242
-0.103216
-0.104024
-0.104845
-0.10568
-0.106527
0.104073
-0.0917386
-0.0923767
-0.0930238
-0.0936799
-0.0943454
-0.0950204
-0.0957052
-0.0963999
-0.0971047
-0.0978199
-0.0985458
-0.0992825
-0.10003
-0.100789
-0.10156
-0.102343
-0.103138
-0.103945
-0.104765
-0.105598
-0.106444
0.104357
-0.0916769
-0.0923142
-0.0929603
-0.0936156
-0.0942802
-0.0949544
-0.0956381
-0.0963318
-0.0970357
-0.0977499
-0.0984747
-0.0992103
-0.0999571
-0.100715
-0.101485
-0.102266
-0.10306
-0.103866
-0.104685
-0.105516
-0.106361
0.104647
-0.0916153
-0.0922517
-0.092897
-0.0935514
-0.0942151
-0.0948882
-0.0955711
-0.0962638
-0.0969667
-0.0976798
-0.0984036
-0.0991382
-0.0998838
-0.100641
-0.101409
-0.10219
-0.102982
-0.103787
-0.104604
-0.105435
-0.106278
0.104946
-0.0915537
-0.0921892
-0.0928336
-0.0934872
-0.0941499
-0.0948221
-0.095504
-0.0961958
-0.0968977
-0.0976099
-0.0983326
-0.0990661
-0.0998107
-0.100566
-0.101334
-0.102113
-0.102904
-0.103708
-0.104524
-0.105353
-0.106196
0.105252
-0.0914921
-0.0921268
-0.0927704
-0.093423
-0.0940848
-0.0947562
-0.095437
-0.0961279
-0.0968287
-0.0975399
-0.0982616
-0.0989941
-0.0997375
-0.100492
-0.101258
-0.102036
-0.102827
-0.103629
-0.104444
-0.105272
-0.106113
0.105566
-0.0914306
-0.0920645
-0.0927071
-0.0933588
-0.0940198
-0.0946901
-0.0953702
-0.0960599
-0.0967598
-0.09747
-0.0981906
-0.098922
-0.0996645
-0.100418
-0.101183
-0.10196
-0.102749
-0.10355
-0.104364
-0.10519
-0.10603
0.105888
-0.0913691
-0.092002
-0.0926439
-0.0932947
-0.0939547
-0.0946242
-0.0953032
-0.0959921
-0.096691
-0.0974001
-0.0981197
-0.0988501
-0.0995913
-0.100344
-0.101108
-0.101883
-0.102671
-0.103471
-0.104284
-0.105109
-0.105948
0.106217
-0.0913076
-0.0919397
-0.0925806
-0.0932306
-0.0938897
-0.0945582
-0.0952363
-0.0959242
-0.0966221
-0.0973303
-0.0980489
-0.0987782
-0.0995184
-0.10027
-0.101033
-0.101807
-0.102594
-0.103392
-0.104204
-0.105028
-0.105865
0.106554
-0.0912462
-0.0918774
-0.0925176
-0.0931665
-0.0938248
-0.0944923
-0.0951695
-0.0958564
-0.0965534
-0.0972604
-0.097978
-0.0987063
-0.0994454
-0.100196
-0.100957
-0.101731
-0.102516
-0.103314
-0.104124
-0.104946
-0.105782
0.106898
-0.0911848
-0.0918153
-0.0924544
-0.0931026
-0.0937599
-0.0944266
-0.0951027
-0.0957887
-0.0964846
-0.0971908
-0.0979072
-0.0986344
-0.0993725
-0.100122
-0.100882
-0.101654
-0.102439
-0.103235
-0.104044
-0.104865
-0.1057
0.107221
-0.0911426
-0.0917724
-0.092411
-0.0930586
-0.0937153
-0.0943813
-0.0950569
-0.0957422
-0.0964374
-0.0971428
-0.0978586
-0.0985851
-0.0993224
-0.100071
-0.100831
-0.101602
-0.102385
-0.103181
-0.103989
-0.104809
-0.105643
0.116085
)
;

boundaryField
{
    inlet
    {
        type            calculated;
        value           uniform 0;
    }
    outlet2
    {
        type            calculated;
        value           uniform 0;
    }
    outlet1
    {
        type            calculated;
        value           uniform 0;
    }
    wall
    {
        type            calculated;
        value           uniform 0;
    }
    symmetryBottom
    {
        type            symmetry;
    }
    symmetryZ0
    {
        type            symmetry;
    }
    symmetryZ05
    {
        type            symmetry;
    }
}


// ************************************************************************* //
