/*--------------------------------*- C++ -*----------------------------------*\
| =========                 |                                                 |
| \\      /  F ield         | OpenFOAM: The Open Source CFD Toolbox           |
|  \\    /   O peration     | Version:  2412                                  |
|   \\  /    A nd           | Website:  www.openfoam.com                      |
|    \\/     M anipulation  |                                                 |
\*---------------------------------------------------------------------------*/
FoamFile
{
    version     2.0;
    format      ascii;
    arch        "LSB;label=32;scalar=64";
    class       volScalarField;
    location    "8.31363e-07";
    object      E_dof0;
}
// * * * * * * * * * * * * * * * * * * * * * * * * * * * * * * * * * * * * * //

dimensions      [0 0 0 0 0 0 0];

internalField   nonuniform List<scalar> 
625
(
100.546
86.9754
86.9754
100.548
86.9769
86.9769
100.546
86.9754
86.9754
100.546
86.9754
86.9754
100.546
86.9754
86.9754
100.546
86.9754
86.9754
100.546
86.9754
86.9754
100.546
86.9754
86.9754
100.546
86.9754
86.9754
100.546
86.9754
86.9754
100.546
86.9754
86.9754
100.546
86.9754
86.9754
100.546
86.9754
86.9754
100.546
86.9754
86.9754
100.546
86.9754
86.9754
100.546
86.9754
86.9754
100.546
86.9754
86.9754
100.546
86.9754
86.9754
100.546
86.9754
86.9754
100.546
86.9754
86.9754
100.546
86.9754
86.9754
100.546
86.9754
86.9754
100.546
86.9754
86.9754
100.546
86.9754
86.9754
100.547
86.9725
86.9726
88.9607
88.9595
88.9583
88.957
88.9558
88.9545
88.9532
88.9519
88.9506
88.9493
88.948
88.9466
88.9453
88.9439
88.9425
88.941
88.9396
88.9381
88.9367
88.9352
88.9337
89.0113
90.7471
90.7582
90.7696
90.7811
90.7927
90.8045
90.8165
90.8287
90.8411
90.8536
90.8663
90.8792
90.8924
90.9057
90.9192
90.9329
90.9469
90.9611
90.9755
90.9901
91.005
91.0843
90.6599
90.6703
90.6809
90.6916
90.7025
90.7135
90.7247
90.7361
90.7476
90.7593
90.7711
90.7832
90.7954
90.8078
90.8204
90.8332
90.8462
90.8594
90.8728
90.8864
90.9003
90.9794
90.5916
90.6016
90.6116
90.6219
90.6323
90.6428
90.6535
90.6643
90.6753
90.6864
90.6977
90.7092
90.7209
90.7327
90.7448
90.757
90.7694
90.782
90.7947
90.8077
90.8209
90.9001
90.5234
90.5328
90.5424
90.5522
90.5621
90.5721
90.5822
90.5926
90.603
90.6136
90.6244
90.6353
90.6465
90.6577
90.6692
90.6808
90.6926
90.7046
90.7167
90.7291
90.7417
90.8207
90.4552
90.4642
90.4733
90.4825
90.4919
90.5014
90.5111
90.5209
90.5308
90.5409
90.5511
90.5615
90.5721
90.5828
90.5936
90.6047
90.6159
90.6272
90.6388
90.6505
90.6625
90.7415
90.387
90.3955
90.4042
90.4129
90.4218
90.4308
90.44
90.4492
90.4586
90.4682
90.4779
90.4877
90.4977
90.5078
90.5181
90.5286
90.5392
90.55
90.5609
90.572
90.5833
90.6623
90.3189
90.3269
90.3351
90.3434
90.3518
90.3603
90.3689
90.3776
90.3865
90.3955
90.4047
90.414
90.4234
90.433
90.4427
90.4525
90.4626
90.4727
90.4831
90.4936
90.5042
90.5831
90.2508
90.2584
90.2661
90.2739
90.2817
90.2897
90.2979
90.3061
90.3145
90.3229
90.3315
90.3403
90.3491
90.3582
90.3673
90.3766
90.386
90.3956
90.4053
90.4152
90.4252
90.504
90.1828
90.1899
90.1971
90.2044
90.2118
90.2193
90.2269
90.2346
90.2424
90.2504
90.2585
90.2666
90.275
90.2834
90.292
90.3007
90.3095
90.3185
90.3276
90.3368
90.3462
90.425
90.115
90.1216
90.1283
90.1351
90.142
90.149
90.1561
90.1633
90.1706
90.1781
90.1856
90.1932
90.201
90.2088
90.2168
90.225
90.2332
90.2416
90.2501
90.2587
90.2675
90.3462
90.0472
90.0533
90.0596
90.0659
90.0723
90.0788
90.0854
90.0921
90.0989
90.1058
90.1127
90.1198
90.127
90.1344
90.1418
90.1493
90.157
90.1647
90.1726
90.1807
90.1888
90.2675
89.9794
89.9851
89.9909
89.9967
90.0026
90.0086
90.0147
90.0209
90.0272
90.0335
90.04
90.0465
90.0532
90.0599
90.0668
90.0737
90.0808
90.088
90.0953
90.1027
90.1102
90.1888
89.9117
89.917
89.9222
89.9276
89.933
89.9385
89.9441
89.9497
89.9555
89.9613
89.9672
89.9732
89.9793
89.9855
89.9918
89.9982
90.0047
90.0113
90.0179
90.0247
90.0316
90.1102
89.8441
89.8488
89.8536
89.8585
89.8634
89.8684
89.8735
89.8787
89.8839
89.8892
89.8946
89.9
89.9056
89.9112
89.9169
89.9227
89.9286
89.9346
89.9407
89.9469
89.9531
90.0316
89.7765
89.7807
89.7851
89.7894
89.7939
89.7984
89.803
89.8076
89.8123
89.8171
89.8219
89.8269
89.8318
89.8369
89.8421
89.8473
89.8526
89.858
89.8635
89.869
89.8747
89.9531
89.7089
89.7127
89.7165
89.7204
89.7244
89.7284
89.7325
89.7366
89.7408
89.745
89.7494
89.7537
89.7582
89.7627
89.7673
89.7719
89.7766
89.7814
89.7863
89.7913
89.7963
89.8746
89.6414
89.6447
89.6481
89.6515
89.655
89.6585
89.662
89.6657
89.6693
89.6731
89.6768
89.6807
89.6846
89.6885
89.6925
89.6966
89.7007
89.705
89.7092
89.7136
89.718
89.7963
89.5739
89.5768
89.5797
89.5826
89.5856
89.5886
89.5917
89.5948
89.5979
89.6011
89.6044
89.6077
89.611
89.6144
89.6178
89.6214
89.6249
89.6285
89.6322
89.6359
89.6397
89.7179
89.5065
89.5089
89.5113
89.5137
89.5162
89.5187
89.5213
89.5239
89.5265
89.5292
89.5319
89.5347
89.5375
89.5403
89.5432
89.5461
89.5491
89.5521
89.5552
89.5583
89.5615
89.6397
89.4391
89.441
89.4429
89.4449
89.4469
89.449
89.451
89.4531
89.4552
89.4574
89.4596
89.4618
89.464
89.4663
89.4686
89.471
89.4734
89.4758
89.4783
89.4808
89.4833
89.5615
89.3717
89.3732
89.3747
89.3762
89.3777
89.3792
89.3808
89.3824
89.384
89.3856
89.3872
89.3889
89.3906
89.3924
89.3941
89.3959
89.3977
89.3996
89.4014
89.4033
89.4053
89.4833
89.3044
89.3054
89.3064
89.3074
89.3085
89.3095
89.3106
89.3116
89.3127
89.3138
89.315
89.3161
89.3173
89.3185
89.3196
89.3209
89.3221
89.3233
89.3246
89.3259
89.3272
89.4052
89.2372
89.2377
89.2382
89.2388
89.2393
89.2399
89.2404
89.241
89.2416
89.2422
89.2428
89.2434
89.244
89.2446
89.2452
89.2459
89.2465
89.2472
89.2479
89.2486
89.2493
89.3272
89.1674
89.1675
89.1675
89.1675
89.1676
89.1676
89.1677
89.1677
89.1678
89.1678
89.1679
89.1679
89.168
89.168
89.1681
89.1681
89.1682
89.1682
89.1683
89.1683
89.1684
89.2464
)
;

boundaryField
{
    inlet
    {
        type            calculated;
        value           uniform 99.4306;
    }
    outlet2
    {
        type            calculated;
        value           uniform 99.4306;
    }
    outlet1
    {
        type            calculated;
        value           uniform 99.4306;
    }
    wall
    {
        type            calculated;
        value           uniform 99.4306;
    }
    symmetryBottom
    {
        type            symmetry;
    }
    symmetryZ0
    {
        type            symmetry;
    }
    symmetryZ05
    {
        type            symmetry;
    }
}


// ************************************************************************* //
