/*--------------------------------*- C++ -*----------------------------------*\
| =========                 |                                                 |
| \\      /  F ield         | OpenFOAM: The Open Source CFD Toolbox           |
|  \\    /   O peration     | Version:  2412                                  |
|   \\  /    A nd           | Website:  www.openfoam.com                      |
|    \\/     M anipulation  |                                                 |
\*---------------------------------------------------------------------------*/
FoamFile
{
    version     2.0;
    format      ascii;
    arch        "LSB;label=32;scalar=64";
    class       volScalarField;
    location    "8.31363e-07";
    object      E_dof3;
}
// * * * * * * * * * * * * * * * * * * * * * * * * * * * * * * * * * * * * * //

dimensions      [0 0 0 0 0 0 0];

internalField   nonuniform List<scalar> 
625
(
0.643795
0.585846
0.519341
0.643803
0.585855
0.519349
0.643803
0.585855
0.519349
0.643803
0.585855
0.519349
0.643803
0.585855
0.519349
0.643803
0.585855
0.519349
0.643803
0.585855
0.519349
0.643803
0.585855
0.519349
0.643803
0.585855
0.519349
0.643803
0.585855
0.519349
0.643803
0.585855
0.519349
0.643803
0.585855
0.519349
0.643803
0.585855
0.519349
0.643803
0.585855
0.519349
0.643803
0.585855
0.519349
0.643803
0.585855
0.519349
0.643803
0.585855
0.519349
0.643803
0.585855
0.519349
0.643803
0.585855
0.519349
0.643803
0.585855
0.519349
0.643803
0.585855
0.519349
0.643803
0.585855
0.519349
0.643803
0.585855
0.519348
0.643804
0.585855
0.518825
0.64396
0.585986
0.585208
0.599319
0.599319
0.599319
0.599319
0.599319
0.599318
0.599318
0.599318
0.599318
0.599318
0.599318
0.599318
0.599318
0.599318
0.599318
0.599317
0.599317
0.599317
0.599317
0.599317
0.599317
0.64501
0.610456
0.610534
0.610612
0.610692
0.610773
0.610855
0.610938
0.611022
0.611108
0.611195
0.611283
0.611372
0.611463
0.611556
0.611649
0.611744
0.611841
0.611939
0.612039
0.61214
0.612243
0.659055
0.61006
0.610135
0.610211
0.610288
0.610366
0.610445
0.610525
0.610606
0.610689
0.610773
0.610858
0.610944
0.611032
0.611121
0.611211
0.611303
0.611396
0.61149
0.611586
0.611684
0.611783
0.65855
0.609665
0.609737
0.60981
0.609884
0.609959
0.610035
0.610113
0.610191
0.61027
0.610351
0.610433
0.610516
0.6106
0.610686
0.610773
0.610861
0.610951
0.611042
0.611135
0.611228
0.611324
0.658048
0.60927
0.60934
0.60941
0.609481
0.609553
0.609626
0.6097
0.609776
0.609852
0.60993
0.610008
0.610088
0.610169
0.610252
0.610335
0.61042
0.610506
0.610594
0.610683
0.610773
0.610865
0.657547
0.608876
0.608942
0.609009
0.609078
0.609147
0.609217
0.609288
0.609361
0.609434
0.609509
0.609584
0.609661
0.609739
0.609818
0.609898
0.60998
0.610062
0.610146
0.610232
0.610318
0.610407
0.657046
0.608481
0.608545
0.608609
0.608675
0.608741
0.608808
0.608877
0.608946
0.609016
0.609088
0.60916
0.609234
0.609308
0.609384
0.609461
0.609539
0.609618
0.609699
0.609781
0.609864
0.609948
0.656546
0.608087
0.608148
0.608209
0.608272
0.608335
0.6084
0.608465
0.608532
0.608599
0.608667
0.608736
0.608807
0.608878
0.608951
0.609024
0.609099
0.609175
0.609252
0.60933
0.609409
0.60949
0.656045
0.607693
0.607751
0.60781
0.607869
0.60793
0.607992
0.608054
0.608117
0.608181
0.608247
0.608313
0.60838
0.608448
0.608517
0.608587
0.608659
0.608731
0.608805
0.608879
0.608955
0.609033
0.655545
0.607298
0.607354
0.60741
0.607467
0.607525
0.607583
0.607643
0.607703
0.607764
0.607826
0.607889
0.607953
0.608018
0.608084
0.608151
0.608219
0.608288
0.608358
0.608429
0.608501
0.608575
0.655045
0.606896
0.606948
0.607001
0.607055
0.60711
0.607166
0.607222
0.60728
0.607338
0.607397
0.607456
0.607517
0.607579
0.607641
0.607705
0.607769
0.607835
0.607901
0.607969
0.608037
0.608107
0.654536
0.606493
0.606543
0.606593
0.606644
0.606696
0.606749
0.606802
0.606856
0.606911
0.606967
0.607024
0.607081
0.60714
0.607199
0.607259
0.60732
0.607382
0.607445
0.607509
0.607574
0.60764
0.654026
0.606091
0.606138
0.606185
0.606233
0.606282
0.606332
0.606382
0.606434
0.606485
0.606538
0.606591
0.606646
0.606701
0.606757
0.606813
0.606871
0.606929
0.606989
0.607049
0.60711
0.607173
0.653517
0.605689
0.605733
0.605777
0.605823
0.605869
0.605916
0.605963
0.606011
0.60606
0.606109
0.606159
0.60621
0.606262
0.606315
0.606368
0.606422
0.606477
0.606533
0.60659
0.606647
0.606706
0.653009
0.605287
0.605328
0.60537
0.605412
0.605455
0.605499
0.605544
0.605589
0.605634
0.60568
0.605728
0.605775
0.605824
0.605873
0.605923
0.605973
0.606025
0.606077
0.60613
0.606184
0.606239
0.6525
0.604885
0.604923
0.604962
0.605002
0.605042
0.605083
0.605124
0.605166
0.605209
0.605252
0.605296
0.60534
0.605386
0.605431
0.605478
0.605525
0.605573
0.605622
0.605671
0.605722
0.605773
0.651992
0.604483
0.604519
0.604555
0.604592
0.604629
0.604667
0.604705
0.604744
0.604784
0.604824
0.604864
0.604906
0.604948
0.60499
0.605033
0.605077
0.605122
0.605167
0.605213
0.605259
0.605307
0.651484
0.604082
0.604115
0.604148
0.604182
0.604216
0.604251
0.604287
0.604323
0.604359
0.604396
0.604433
0.604471
0.60451
0.604549
0.604589
0.604629
0.60467
0.604712
0.604754
0.604797
0.604841
0.650977
0.603681
0.603711
0.603741
0.603772
0.603804
0.603836
0.603868
0.603901
0.603934
0.603968
0.604002
0.604037
0.604073
0.604108
0.604145
0.604182
0.604219
0.604257
0.604296
0.604336
0.604376
0.650469
0.60328
0.603307
0.603335
0.603363
0.603392
0.603421
0.60345
0.60348
0.60351
0.603541
0.603572
0.603603
0.603635
0.603668
0.603701
0.603735
0.603769
0.603803
0.603838
0.603874
0.60391
0.649962
0.602879
0.602904
0.602929
0.602954
0.602979
0.603005
0.603032
0.603059
0.603086
0.603113
0.603141
0.60317
0.603198
0.603228
0.603257
0.603287
0.603318
0.603349
0.603381
0.603413
0.603445
0.649456
0.602478
0.6025
0.602522
0.602545
0.602568
0.602591
0.602614
0.602638
0.602662
0.602686
0.602711
0.602736
0.602762
0.602788
0.602814
0.602841
0.602868
0.602895
0.602923
0.602952
0.602981
0.64895
0.602078
0.602097
0.602116
0.602136
0.602156
0.602176
0.602196
0.602217
0.602238
0.602259
0.602281
0.602303
0.602325
0.602348
0.602371
0.602394
0.602418
0.602442
0.602466
0.602491
0.602516
0.648443
0.601678
0.601694
0.601711
0.601728
0.601745
0.601762
0.601779
0.601797
0.601815
0.601833
0.601851
0.60187
0.601889
0.601909
0.601928
0.601948
0.601968
0.601989
0.60201
0.602031
0.602053
0.647938
0.601417
0.601431
0.601446
0.601461
0.601476
0.601491
0.601506
0.601522
0.601538
0.601554
0.601571
0.601587
0.601604
0.601622
0.601639
0.601657
0.601675
0.601693
0.601712
0.60173
0.60175
0.647591
)
;

boundaryField
{
    inlet
    {
        type            calculated;
        value           uniform 0;
    }
    outlet2
    {
        type            calculated;
        value           uniform 0;
    }
    outlet1
    {
        type            calculated;
        value           uniform 0;
    }
    wall
    {
        type            calculated;
        value           uniform 0;
    }
    symmetryBottom
    {
        type            symmetry;
    }
    symmetryZ0
    {
        type            symmetry;
    }
    symmetryZ05
    {
        type            symmetry;
    }
}


// ************************************************************************* //
