/*--------------------------------*- C++ -*----------------------------------*\
| =========                 |                                                 |
| \\      /  F ield         | OpenFOAM: The Open Source CFD Toolbox           |
|  \\    /   O peration     | Version:  2412                                  |
|   \\  /    A nd           | Website:  www.openfoam.com                      |
|    \\/     M anipulation  |                                                 |
\*---------------------------------------------------------------------------*/
FoamFile
{
    version     2.0;
    format      ascii;
    arch        "LSB;label=32;scalar=64";
    class       volScalarField;
    location    "8.31363e-07";
    object      E_dof2;
}
// * * * * * * * * * * * * * * * * * * * * * * * * * * * * * * * * * * * * * //

dimensions      [0 0 0 0 0 0 0];

internalField   nonuniform List<scalar> 
625
(
0.00815537
0.0170407
-8.00459e-05
-0.00613555
0.00366185
-0.000343365
-0.00138309
0.00808398
-0.000342988
-0.00139701
0.00807085
-0.000342989
-0.00139699
0.00807088
-0.000342989
-0.00139699
0.00807088
-0.000342989
-0.00139699
0.00807088
-0.000342989
-0.00139699
0.00807088
-0.000342989
-0.00139699
0.00807088
-0.000342989
-0.00139699
0.00807088
-0.000342989
-0.00139699
0.00807088
-0.000342989
-0.00139699
0.00807088
-0.000342989
-0.00139699
0.00807088
-0.000342989
-0.00139699
0.00807088
-0.000342989
-0.00139699
0.00807088
-0.000342989
-0.00139699
0.00807088
-0.000342989
-0.00139699
0.00807088
-0.000342989
-0.00139699
0.00807088
-0.000342989
-0.00139699
0.00807088
-0.000342989
-0.00139699
0.00807088
-0.000342989
-0.00139699
0.00807088
-0.000342989
-0.00139699
0.00807088
-0.000342989
-0.00139698
0.00807085
-0.000342542
-0.00139852
0.00809446
0.000287252
-0.000461471
-0.000494658
-0.000627084
5.42645
5.46362
5.50131
5.53951
5.57826
5.61754
5.65739
5.6978
5.7388
5.78038
5.82258
5.86539
5.90884
5.95294
5.9977
6.04313
6.08926
6.1361
6.18367
6.23197
6.28104
2.29932e-05
-0.138757
-0.140148
-0.141564
-0.143007
-0.144476
-0.145973
-0.147498
-0.149052
-0.150636
-0.152251
-0.153897
-0.155576
-0.157288
-0.159034
-0.160815
-0.162633
-0.164487
-0.166381
-0.168313
-0.170286
-0.172302
-0.000398358
-0.0828702
-0.0834744
-0.0840875
-0.0847096
-0.085341
-0.0859818
-0.0866323
-0.0872927
-0.0879632
-0.088644
-0.0893354
-0.0900377
-0.090751
-0.0914758
-0.0922121
-0.0929604
-0.0937208
-0.0944938
-0.0952795
-0.0960784
-0.0968908
-0.000402776
-0.0835571
-0.0841638
-0.0847793
-0.0854039
-0.0860378
-0.086681
-0.087334
-0.0879968
-0.0886697
-0.0893529
-0.0900468
-0.0907514
-0.0914671
-0.0921942
-0.0929329
-0.0936835
-0.0944462
-0.0952215
-0.0960095
-0.0968106
-0.0976251
-0.0004025
-0.0842544
-0.0848639
-0.0854822
-0.0861096
-0.0867462
-0.0873924
-0.0880481
-0.0887138
-0.0893896
-0.0900758
-0.0907724
-0.09148
-0.0921987
-0.0929286
-0.0936702
-0.0944236
-0.0951894
-0.0959674
-0.0967584
-0.0975624
-0.09838
-0.00040226
-0.0849645
-0.0855769
-0.0861982
-0.0868285
-0.0874682
-0.0881173
-0.0887761
-0.0894447
-0.0901236
-0.0908127
-0.0915125
-0.0922231
-0.0929448
-0.0936779
-0.0944225
-0.0951792
-0.0959479
-0.0967292
-0.0975232
-0.0983305
-0.099151
-0.000402021
-0.0856889
-0.0863045
-0.0869289
-0.0875625
-0.0882053
-0.0888576
-0.0895196
-0.0901916
-0.0908736
-0.0915661
-0.0922692
-0.0929831
-0.0937081
-0.0944445
-0.0951925
-0.0959525
-0.0967246
-0.0975093
-0.0983068
-0.0991173
-0.0999414
-0.000401781
-0.0864278
-0.0870467
-0.0876745
-0.0883114
-0.0889576
-0.0896134
-0.0902788
-0.0909542
-0.0916398
-0.0923357
-0.0930424
-0.0937598
-0.0944884
-0.0952284
-0.0959801
-0.0967436
-0.0975195
-0.0983078
-0.0991089
-0.0999232
-0.100751
-0.000401541
-0.0871811
-0.0878036
-0.0884349
-0.0890754
-0.0897253
-0.0903846
-0.0910538
-0.0917328
-0.0924221
-0.0931219
-0.0938322
-0.0945534
-0.0952859
-0.0960297
-0.0967852
-0.0975528
-0.0983324
-0.0991248
-0.0999298
-0.100748
-0.10158
-0.000401302
-0.0879323
-0.0885584
-0.0891936
-0.0898379
-0.0904915
-0.0911548
-0.0918278
-0.0925108
-0.0932041
-0.0939077
-0.0946221
-0.0953474
-0.0960838
-0.0968318
-0.0975914
-0.098363
-0.099147
-0.0999434
-0.100753
-0.101575
-0.102411
-0.000400814
-0.0882384
-0.0888651
-0.0895007
-0.0901456
-0.0907998
-0.0914635
-0.0921371
-0.0928205
-0.0935142
-0.0942184
-0.0949332
-0.0956589
-0.0963958
-0.097144
-0.0979041
-0.0986761
-0.0994602
-0.100257
-0.101067
-0.101889
-0.102726
-0.000401043
-0.0885392
-0.0891663
-0.0898024
-0.0904474
-0.091102
-0.0917659
-0.0924397
-0.0931234
-0.0938174
-0.0945216
-0.0952366
-0.0959624
-0.0966993
-0.0974478
-0.0982077
-0.0989797
-0.0997639
-0.100561
-0.10137
-0.102193
-0.103029
-0.000401489
-0.0888458
-0.0894734
-0.0901097
-0.0907553
-0.0914101
-0.0920746
-0.0927486
-0.0934327
-0.0941268
-0.0948315
-0.0955466
-0.0962726
-0.0970099
-0.0977583
-0.0985185
-0.0992906
-0.100075
-0.100872
-0.101681
-0.102504
-0.10334
-0.000401898
-0.0891581
-0.0897861
-0.090423
-0.0910691
-0.0917244
-0.0923892
-0.0930638
-0.0937482
-0.0944428
-0.0951477
-0.0958633
-0.0965897
-0.0973271
-0.098076
-0.0988364
-0.0996087
-0.100393
-0.10119
-0.102
-0.102822
-0.103658
-0.000402307
-0.089476
-0.0901046
-0.0907421
-0.0913888
-0.0920447
-0.09271
-0.0933851
-0.0940701
-0.0947652
-0.0954706
-0.0961866
-0.0969134
-0.0976513
-0.0984005
-0.0991613
-0.0999339
-0.100719
-0.101516
-0.102326
-0.103149
-0.103985
-0.000402716
-0.0897994
-0.0904289
-0.091067
-0.0917143
-0.0923709
-0.093037
-0.0937126
-0.0943982
-0.0950939
-0.0958
-0.0965165
-0.0972438
-0.0979823
-0.098732
-0.0994933
-0.100266
-0.101052
-0.101849
-0.102659
-0.103483
-0.104319
-0.000403125
-0.0901286
-0.0907587
-0.0913977
-0.0920457
-0.0927031
-0.0933698
-0.0940463
-0.0947325
-0.095429
-0.0961356
-0.0968529
-0.0975809
-0.09832
-0.0990704
-0.0998321
-0.100606
-0.101392
-0.10219
-0.103
-0.103824
-0.104661
-0.000403533
-0.0904632
-0.0910942
-0.091734
-0.092383
-0.0930412
-0.0937087
-0.094386
-0.0950731
-0.0957703
-0.0964778
-0.0971958
-0.0979246
-0.0986644
-0.0994154
-0.100178
-0.100952
-0.101739
-0.102538
-0.103349
-0.104173
-0.105011
-0.000403941
-0.0908034
-0.0914353
-0.0920761
-0.092726
-0.0933851
-0.0940537
-0.0947318
-0.0954199
-0.096118
-0.0968263
-0.0975452
-0.0982749
-0.0990155
-0.0997674
-0.100531
-0.101306
-0.102093
-0.102893
-0.103705
-0.10453
-0.105368
-0.000404349
-0.091149
-0.0917821
-0.0924238
-0.0930747
-0.093735
-0.0944044
-0.0950837
-0.0957727
-0.0964718
-0.0971812
-0.097901
-0.0986317
-0.0993734
-0.100126
-0.10089
-0.101667
-0.102455
-0.103255
-0.104068
-0.104894
-0.105733
-0.000404756
-0.0915001
-0.0921342
-0.0927772
-0.0934293
-0.0940905
-0.0947612
-0.0954415
-0.0961316
-0.0968318
-0.0975423
-0.0982633
-0.098995
-0.0997377
-0.100492
-0.101257
-0.102034
-0.102823
-0.103625
-0.104439
-0.105266
-0.106106
-0.000405162
-0.0918567
-0.092492
-0.0931362
-0.0937894
-0.0944519
-0.0951238
-0.0958053
-0.0964967
-0.097198
-0.0979097
-0.0986319
-0.0993648
-0.100109
-0.100864
-0.10163
-0.102409
-0.103199
-0.104002
-0.104817
-0.105645
-0.106486
-0.000405568
-0.0922186
-0.0928553
-0.0935008
-0.0941553
-0.0948191
-0.0954922
-0.0961751
-0.0968677
-0.0975705
-0.0982833
-0.0990069
-0.099741
-0.100486
-0.101243
-0.10201
-0.10279
-0.103582
-0.104386
-0.105202
-0.106031
-0.106874
-0.000405972
-0.0925642
-0.093202
-0.0938485
-0.0945041
-0.0951689
-0.0958433
-0.0965271
-0.0972208
-0.0979245
-0.0986386
-0.0993631
-0.100098
-0.100845
-0.101602
-0.102371
-0.103151
-0.103944
-0.104749
-0.105566
-0.106396
-0.10724
-0.000406401
-0.100568
-0.10126
-0.101962
-0.102673
-0.103395
-0.104127
-0.104869
-0.105622
-0.106385
-0.10716
-0.107946
-0.108744
-0.109554
-0.110376
-0.11121
-0.112057
-0.112917
-0.113791
-0.114677
-0.115578
-0.116493
-0.000416473
)
;

boundaryField
{
    inlet
    {
        type            calculated;
        value           uniform 0;
    }
    outlet2
    {
        type            calculated;
        value           uniform 0;
    }
    outlet1
    {
        type            calculated;
        value           uniform 0;
    }
    wall
    {
        type            calculated;
        value           uniform 0;
    }
    symmetryBottom
    {
        type            symmetry;
    }
    symmetryZ0
    {
        type            symmetry;
    }
    symmetryZ05
    {
        type            symmetry;
    }
}


// ************************************************************************* //
