/*--------------------------------*- C++ -*----------------------------------*\
| =========                 |                                                 |
| \\      /  F ield         | OpenFOAM: The Open Source CFD Toolbox           |
|  \\    /   O peration     | Version:  2412                                  |
|   \\  /    A nd           | Website:  www.openfoam.com                      |
|    \\/     M anipulation  |                                                 |
\*---------------------------------------------------------------------------*/
FoamFile
{
    version     2.0;
    format      ascii;
    arch        "LSB;label=32;scalar=64";
    class       volScalarField;
    location    "8.31363e-07";
    object      p;
}
// * * * * * * * * * * * * * * * * * * * * * * * * * * * * * * * * * * * * * //

dimensions      [0 0 0 0 0 0 0];

internalField   nonuniform List<scalar> 
625
(
1.18155
1.02391
1.02391
1.18163
1.02399
1.02399
1.1816
1.02396
1.02396
1.1816
1.02396
1.02396
1.1816
1.02396
1.02396
1.1816
1.02396
1.02396
1.1816
1.02396
1.02396
1.1816
1.02396
1.02396
1.1816
1.02396
1.02396
1.1816
1.02396
1.02396
1.1816
1.02396
1.02396
1.1816
1.02396
1.02396
1.1816
1.02396
1.02396
1.1816
1.02396
1.02396
1.1816
1.02396
1.02396
1.1816
1.02396
1.02396
1.1816
1.02396
1.02396
1.1816
1.02396
1.02396
1.1816
1.02396
1.02396
1.1816
1.02396
1.02396
1.1816
1.02396
1.02396
1.1816
1.02396
1.02396
1.1816
1.02396
1.02396
1.1816
1.02396
1.02396
1.18161
1.02393
1.02393
1.21751
1.21892
1.22035
1.22181
1.22329
1.22479
1.22633
1.22788
1.22947
1.23108
1.23272
1.23439
1.2361
1.23783
1.23959
1.24139
1.24322
1.24509
1.24699
1.24893
1.2509
1.25196
1.06659
1.0667
1.06682
1.06693
1.06705
1.06716
1.06728
1.0674
1.06752
1.06765
1.06777
1.0679
1.06803
1.06816
1.06829
1.06842
1.06856
1.0687
1.06884
1.06898
1.06912
1.07005
1.06682
1.06694
1.06707
1.06719
1.06732
1.06745
1.06758
1.06771
1.06784
1.06798
1.06812
1.06826
1.0684
1.06854
1.06869
1.06884
1.06899
1.06914
1.0693
1.06946
1.06962
1.07055
1.06602
1.06614
1.06625
1.06637
1.06649
1.06662
1.06674
1.06687
1.06699
1.06712
1.06726
1.06739
1.06752
1.06766
1.0678
1.06794
1.06809
1.06823
1.06838
1.06853
1.06869
1.06962
1.06523
1.06534
1.06545
1.06556
1.06568
1.06579
1.06591
1.06603
1.06615
1.06628
1.0664
1.06653
1.06666
1.06679
1.06692
1.06706
1.06719
1.06733
1.06747
1.06762
1.06776
1.06869
1.06444
1.06454
1.06465
1.06475
1.06486
1.06497
1.06508
1.0652
1.06531
1.06543
1.06555
1.06567
1.06579
1.06592
1.06604
1.06617
1.0663
1.06643
1.06657
1.0667
1.06684
1.06777
1.06364
1.06374
1.06384
1.06394
1.06405
1.06415
1.06426
1.06436
1.06447
1.06459
1.0647
1.06481
1.06493
1.06505
1.06517
1.06529
1.06541
1.06553
1.06566
1.06579
1.06592
1.06685
1.06285
1.06294
1.06304
1.06313
1.06323
1.06333
1.06343
1.06353
1.06364
1.06374
1.06385
1.06395
1.06406
1.06417
1.06429
1.0644
1.06452
1.06464
1.06476
1.06488
1.065
1.06593
1.06206
1.06215
1.06223
1.06233
1.06242
1.06251
1.0626
1.0627
1.0628
1.0629
1.063
1.0631
1.0632
1.0633
1.06341
1.06352
1.06363
1.06374
1.06385
1.06397
1.06408
1.06501
1.06127
1.06135
1.06143
1.06152
1.0616
1.06169
1.06178
1.06187
1.06196
1.06205
1.06215
1.06224
1.06234
1.06243
1.06253
1.06264
1.06274
1.06284
1.06295
1.06306
1.06316
1.06409
1.06048
1.06055
1.06063
1.06071
1.06079
1.06087
1.06096
1.06104
1.06112
1.06121
1.0613
1.06139
1.06148
1.06157
1.06166
1.06175
1.06185
1.06195
1.06205
1.06215
1.06225
1.06317
1.05969
1.05976
1.05983
1.05991
1.05998
1.06006
1.06013
1.06021
1.06029
1.06037
1.06045
1.06053
1.06062
1.0607
1.06079
1.06087
1.06096
1.06105
1.06115
1.06124
1.06133
1.06226
1.0589
1.05897
1.05903
1.0591
1.05917
1.05924
1.05931
1.05938
1.05946
1.05953
1.0596
1.05968
1.05976
1.05984
1.05991
1.06
1.06008
1.06016
1.06025
1.06033
1.06042
1.06134
1.05811
1.05817
1.05824
1.0583
1.05836
1.05842
1.05849
1.05855
1.05862
1.05869
1.05876
1.05883
1.0589
1.05897
1.05904
1.05912
1.05919
1.05927
1.05935
1.05943
1.05951
1.06043
1.05733
1.05738
1.05744
1.05749
1.05755
1.05761
1.05767
1.05773
1.05779
1.05785
1.05791
1.05798
1.05804
1.05811
1.05817
1.05824
1.05831
1.05838
1.05845
1.05852
1.05859
1.05951
1.05654
1.05659
1.05664
1.05669
1.05674
1.05679
1.05685
1.0569
1.05696
1.05701
1.05707
1.05712
1.05718
1.05724
1.0573
1.05736
1.05742
1.05749
1.05755
1.05761
1.05768
1.0586
1.05575
1.0558
1.05584
1.05589
1.05593
1.05598
1.05603
1.05608
1.05612
1.05617
1.05622
1.05627
1.05633
1.05638
1.05643
1.05649
1.05654
1.0566
1.05665
1.05671
1.05677
1.05769
1.05497
1.05501
1.05505
1.05509
1.05513
1.05517
1.05521
1.05525
1.05529
1.05534
1.05538
1.05542
1.05547
1.05552
1.05556
1.05561
1.05566
1.05571
1.05576
1.05581
1.05586
1.05678
1.05418
1.05422
1.05425
1.05428
1.05432
1.05435
1.05439
1.05443
1.05446
1.0545
1.05454
1.05458
1.05461
1.05465
1.05469
1.05473
1.05477
1.05482
1.05486
1.0549
1.05495
1.05586
1.0534
1.05343
1.05346
1.05348
1.05351
1.05354
1.05357
1.0536
1.05363
1.05366
1.05369
1.05373
1.05376
1.05379
1.05383
1.05386
1.05389
1.05393
1.05396
1.054
1.05404
1.05495
1.05262
1.05264
1.05266
1.05268
1.05271
1.05273
1.05275
1.05278
1.0528
1.05283
1.05285
1.05288
1.0529
1.05293
1.05296
1.05298
1.05301
1.05304
1.05307
1.0531
1.05313
1.05404
1.05183
1.05185
1.05187
1.05188
1.0519
1.05192
1.05194
1.05195
1.05197
1.05199
1.05201
1.05203
1.05205
1.05207
1.05209
1.05211
1.05213
1.05215
1.05218
1.0522
1.05222
1.05314
1.05105
1.05106
1.05107
1.05108
1.0511
1.05111
1.05112
1.05113
1.05114
1.05116
1.05117
1.05118
1.0512
1.05121
1.05122
1.05124
1.05125
1.05127
1.05128
1.0513
1.05131
1.05223
1.05027
1.05027
1.05028
1.05029
1.05029
1.0503
1.0503
1.05031
1.05032
1.05032
1.05033
1.05034
1.05034
1.05035
1.05036
1.05037
1.05037
1.05038
1.05039
1.0504
1.0504
1.05132
1.04946
1.04946
1.04946
1.04946
1.04946
1.04946
1.04946
1.04946
1.04946
1.04946
1.04946
1.04946
1.04946
1.04946
1.04946
1.04946
1.04946
1.04946
1.04946
1.04946
1.04946
1.05038
)
;

boundaryField
{
    inlet
    {
        type            calculated;
        value           uniform 0;
    }
    outlet2
    {
        type            calculated;
        value           uniform 0;
    }
    outlet1
    {
        type            calculated;
        value           uniform 0;
    }
    wall
    {
        type            calculated;
        value           uniform 0;
    }
    symmetryBottom
    {
        type            symmetry;
    }
    symmetryZ0
    {
        type            symmetry;
    }
    symmetryZ05
    {
        type            symmetry;
    }
}


// ************************************************************************* //
