/*--------------------------------*- C++ -*----------------------------------*\
| =========                 |                                                 |
| \\      /  F ield         | OpenFOAM: The Open Source CFD Toolbox           |
|  \\    /   O peration     | Version:  2412                                  |
|   \\  /    A nd           | Website:  www.openfoam.com                      |
|    \\/     M anipulation  |                                                 |
\*---------------------------------------------------------------------------*/
FoamFile
{
    version     2.0;
    format      ascii;
    arch        "LSB;label=32;scalar=64";
    class       volScalarField;
    location    "8.31363e-07";
    object      rho;
}
// * * * * * * * * * * * * * * * * * * * * * * * * * * * * * * * * * * * * * //

dimensions      [0 0 0 0 0 0 0];

internalField   nonuniform List<scalar> 
625
(
2.84169e-05
2.46261e-05
2.46261e-05
2.84174e-05
2.46265e-05
2.46265e-05
2.84169e-05
2.46261e-05
2.46261e-05
2.84169e-05
2.46261e-05
2.46261e-05
2.84169e-05
2.46261e-05
2.46261e-05
2.84169e-05
2.46261e-05
2.46261e-05
2.84169e-05
2.46261e-05
2.46261e-05
2.84169e-05
2.46261e-05
2.46261e-05
2.84169e-05
2.46261e-05
2.46261e-05
2.84169e-05
2.46261e-05
2.46261e-05
2.84169e-05
2.46261e-05
2.46261e-05
2.84169e-05
2.46261e-05
2.46261e-05
2.84169e-05
2.46261e-05
2.46261e-05
2.84169e-05
2.46261e-05
2.46261e-05
2.84169e-05
2.46261e-05
2.46261e-05
2.84169e-05
2.46261e-05
2.46261e-05
2.84169e-05
2.46261e-05
2.46261e-05
2.84169e-05
2.46261e-05
2.46261e-05
2.84169e-05
2.46261e-05
2.46261e-05
2.84169e-05
2.46261e-05
2.46261e-05
2.84169e-05
2.46261e-05
2.46261e-05
2.84169e-05
2.46261e-05
2.46261e-05
2.84169e-05
2.46261e-05
2.46261e-05
2.84169e-05
2.46261e-05
2.46261e-05
2.84171e-05
2.46253e-05
2.46253e-05
2.52491e-05
2.52494e-05
2.52496e-05
2.52498e-05
2.52501e-05
2.52504e-05
2.52506e-05
2.52509e-05
2.52512e-05
2.52515e-05
2.52518e-05
2.52521e-05
2.52524e-05
2.52527e-05
2.5253e-05
2.52534e-05
2.52537e-05
2.52541e-05
2.52545e-05
2.52548e-05
2.52552e-05
2.52768e-05
2.56809e-05
2.5684e-05
2.56872e-05
2.56904e-05
2.56936e-05
2.56969e-05
2.57003e-05
2.57037e-05
2.57071e-05
2.57106e-05
2.57142e-05
2.57178e-05
2.57215e-05
2.57252e-05
2.5729e-05
2.57328e-05
2.57367e-05
2.57407e-05
2.57447e-05
2.57488e-05
2.57529e-05
2.57749e-05
2.56567e-05
2.56596e-05
2.56626e-05
2.56656e-05
2.56686e-05
2.56717e-05
2.56748e-05
2.5678e-05
2.56812e-05
2.56845e-05
2.56878e-05
2.56912e-05
2.56946e-05
2.56981e-05
2.57016e-05
2.57052e-05
2.57088e-05
2.57125e-05
2.57162e-05
2.572e-05
2.57239e-05
2.57458e-05
2.56376e-05
2.56404e-05
2.56432e-05
2.56461e-05
2.5649e-05
2.56519e-05
2.56549e-05
2.56579e-05
2.5661e-05
2.56641e-05
2.56673e-05
2.56705e-05
2.56738e-05
2.56771e-05
2.56804e-05
2.56838e-05
2.56873e-05
2.56908e-05
2.56944e-05
2.5698e-05
2.57017e-05
2.57237e-05
2.56185e-05
2.56212e-05
2.56239e-05
2.56266e-05
2.56293e-05
2.56321e-05
2.5635e-05
2.56379e-05
2.56408e-05
2.56438e-05
2.56468e-05
2.56498e-05
2.56529e-05
2.56561e-05
2.56593e-05
2.56625e-05
2.56658e-05
2.56692e-05
2.56726e-05
2.5676e-05
2.56796e-05
2.57015e-05
2.55994e-05
2.5602e-05
2.56045e-05
2.56071e-05
2.56097e-05
2.56124e-05
2.56151e-05
2.56178e-05
2.56206e-05
2.56234e-05
2.56263e-05
2.56292e-05
2.56321e-05
2.56351e-05
2.56382e-05
2.56412e-05
2.56444e-05
2.56476e-05
2.56508e-05
2.56541e-05
2.56574e-05
2.56793e-05
2.55804e-05
2.55828e-05
2.55852e-05
2.55876e-05
2.55901e-05
2.55926e-05
2.55952e-05
2.55978e-05
2.56004e-05
2.56031e-05
2.56058e-05
2.56085e-05
2.56113e-05
2.56142e-05
2.5617e-05
2.562e-05
2.56229e-05
2.56259e-05
2.5629e-05
2.56321e-05
2.56353e-05
2.56572e-05
2.55613e-05
2.55636e-05
2.55659e-05
2.55682e-05
2.55705e-05
2.55729e-05
2.55753e-05
2.55778e-05
2.55802e-05
2.55828e-05
2.55853e-05
2.55879e-05
2.55906e-05
2.55932e-05
2.55959e-05
2.55987e-05
2.56015e-05
2.56044e-05
2.56072e-05
2.56102e-05
2.56132e-05
2.5635e-05
2.55423e-05
2.55444e-05
2.55466e-05
2.55487e-05
2.55509e-05
2.55532e-05
2.55554e-05
2.55578e-05
2.55601e-05
2.55625e-05
2.55649e-05
2.55673e-05
2.55698e-05
2.55723e-05
2.55749e-05
2.55775e-05
2.55801e-05
2.55828e-05
2.55855e-05
2.55883e-05
2.55911e-05
2.56129e-05
2.55233e-05
2.55253e-05
2.55273e-05
2.55293e-05
2.55314e-05
2.55335e-05
2.55356e-05
2.55378e-05
2.55399e-05
2.55422e-05
2.55444e-05
2.55467e-05
2.5549e-05
2.55514e-05
2.55538e-05
2.55562e-05
2.55587e-05
2.55612e-05
2.55638e-05
2.55663e-05
2.5569e-05
2.55908e-05
2.55043e-05
2.55062e-05
2.5508e-05
2.55099e-05
2.55119e-05
2.55138e-05
2.55158e-05
2.55178e-05
2.55199e-05
2.55219e-05
2.5524e-05
2.55262e-05
2.55283e-05
2.55306e-05
2.55328e-05
2.55351e-05
2.55374e-05
2.55397e-05
2.55421e-05
2.55445e-05
2.5547e-05
2.55688e-05
2.54853e-05
2.54871e-05
2.54888e-05
2.54906e-05
2.54924e-05
2.54942e-05
2.5496e-05
2.54979e-05
2.54998e-05
2.55017e-05
2.55037e-05
2.55057e-05
2.55077e-05
2.55097e-05
2.55118e-05
2.55139e-05
2.5516e-05
2.55182e-05
2.55204e-05
2.55227e-05
2.55249e-05
2.55467e-05
2.54664e-05
2.5468e-05
2.54696e-05
2.54712e-05
2.54729e-05
2.54746e-05
2.54763e-05
2.5478e-05
2.54797e-05
2.54815e-05
2.54833e-05
2.54852e-05
2.5487e-05
2.54889e-05
2.54908e-05
2.54928e-05
2.54947e-05
2.54967e-05
2.54988e-05
2.55009e-05
2.5503e-05
2.55247e-05
2.54475e-05
2.54489e-05
2.54504e-05
2.54519e-05
2.54534e-05
2.54549e-05
2.54565e-05
2.54581e-05
2.54597e-05
2.54613e-05
2.5463e-05
2.54647e-05
2.54664e-05
2.54681e-05
2.54699e-05
2.54716e-05
2.54734e-05
2.54753e-05
2.54772e-05
2.54791e-05
2.5481e-05
2.55027e-05
2.54285e-05
2.54299e-05
2.54312e-05
2.54326e-05
2.54339e-05
2.54353e-05
2.54368e-05
2.54382e-05
2.54397e-05
2.54411e-05
2.54427e-05
2.54442e-05
2.54457e-05
2.54473e-05
2.54489e-05
2.54505e-05
2.54522e-05
2.54538e-05
2.54555e-05
2.54573e-05
2.5459e-05
2.54808e-05
2.54096e-05
2.54108e-05
2.5412e-05
2.54133e-05
2.54145e-05
2.54158e-05
2.5417e-05
2.54183e-05
2.54197e-05
2.5421e-05
2.54223e-05
2.54237e-05
2.54251e-05
2.54265e-05
2.5428e-05
2.54294e-05
2.54309e-05
2.54324e-05
2.5434e-05
2.54355e-05
2.54371e-05
2.54588e-05
2.53907e-05
2.53918e-05
2.53929e-05
2.5394e-05
2.53951e-05
2.53962e-05
2.53973e-05
2.53985e-05
2.53996e-05
2.54008e-05
2.5402e-05
2.54033e-05
2.54045e-05
2.54058e-05
2.54071e-05
2.54084e-05
2.54097e-05
2.5411e-05
2.54124e-05
2.54138e-05
2.54152e-05
2.54369e-05
2.53718e-05
2.53728e-05
2.53737e-05
2.53747e-05
2.53756e-05
2.53766e-05
2.53776e-05
2.53786e-05
2.53797e-05
2.53807e-05
2.53818e-05
2.53828e-05
2.53839e-05
2.5385e-05
2.53861e-05
2.53873e-05
2.53884e-05
2.53896e-05
2.53908e-05
2.5392e-05
2.53933e-05
2.5415e-05
2.5353e-05
2.53538e-05
2.53546e-05
2.53554e-05
2.53562e-05
2.53571e-05
2.53579e-05
2.53588e-05
2.53597e-05
2.53606e-05
2.53615e-05
2.53624e-05
2.53633e-05
2.53643e-05
2.53653e-05
2.53662e-05
2.53672e-05
2.53682e-05
2.53693e-05
2.53703e-05
2.53714e-05
2.5393e-05
2.53341e-05
2.53348e-05
2.53355e-05
2.53361e-05
2.53368e-05
2.53375e-05
2.53383e-05
2.5339e-05
2.53397e-05
2.53405e-05
2.53412e-05
2.5342e-05
2.53428e-05
2.53436e-05
2.53444e-05
2.53452e-05
2.5346e-05
2.53469e-05
2.53477e-05
2.53486e-05
2.53495e-05
2.53712e-05
2.53153e-05
2.53158e-05
2.53163e-05
2.53169e-05
2.53175e-05
2.5318e-05
2.53186e-05
2.53192e-05
2.53198e-05
2.53204e-05
2.5321e-05
2.53216e-05
2.53222e-05
2.53229e-05
2.53235e-05
2.53242e-05
2.53249e-05
2.53255e-05
2.53262e-05
2.53269e-05
2.53276e-05
2.53493e-05
2.52964e-05
2.52968e-05
2.52972e-05
2.52977e-05
2.52981e-05
2.52985e-05
2.5299e-05
2.52994e-05
2.52998e-05
2.53003e-05
2.53008e-05
2.53012e-05
2.53017e-05
2.53022e-05
2.53027e-05
2.53032e-05
2.53037e-05
2.53042e-05
2.53047e-05
2.53053e-05
2.53058e-05
2.53274e-05
2.52776e-05
2.52779e-05
2.52782e-05
2.52784e-05
2.52787e-05
2.5279e-05
2.52793e-05
2.52796e-05
2.52799e-05
2.52802e-05
2.52805e-05
2.52809e-05
2.52812e-05
2.52815e-05
2.52818e-05
2.52822e-05
2.52825e-05
2.52829e-05
2.52832e-05
2.52836e-05
2.5284e-05
2.53056e-05
2.52588e-05
2.52589e-05
2.52591e-05
2.52592e-05
2.52594e-05
2.52595e-05
2.52597e-05
2.52599e-05
2.526e-05
2.52602e-05
2.52603e-05
2.52605e-05
2.52607e-05
2.52609e-05
2.5261e-05
2.52612e-05
2.52614e-05
2.52616e-05
2.52618e-05
2.5262e-05
2.52622e-05
2.52838e-05
2.52393e-05
2.52393e-05
2.52393e-05
2.52393e-05
2.52393e-05
2.52393e-05
2.52393e-05
2.52394e-05
2.52394e-05
2.52394e-05
2.52394e-05
2.52394e-05
2.52394e-05
2.52394e-05
2.52394e-05
2.52395e-05
2.52395e-05
2.52395e-05
2.52395e-05
2.52395e-05
2.52395e-05
2.52611e-05
)
;

boundaryField
{
    inlet
    {
        type            calculated;
        value           uniform 0;
    }
    outlet2
    {
        type            calculated;
        value           uniform 0;
    }
    outlet1
    {
        type            calculated;
        value           uniform 0;
    }
    wall
    {
        type            calculated;
        value           uniform 0;
    }
    symmetryBottom
    {
        type            symmetry;
    }
    symmetryZ0
    {
        type            symmetry;
    }
    symmetryZ05
    {
        type            symmetry;
    }
}


// ************************************************************************* //
