/*--------------------------------*- C++ -*----------------------------------*\
| =========                 |                                                 |
| \\      /  F ield         | OpenFOAM: The Open Source CFD Toolbox           |
|  \\    /   O peration     | Version:  2412                                  |
|   \\  /    A nd           | Website:  www.openfoam.com                      |
|    \\/     M anipulation  |                                                 |
\*---------------------------------------------------------------------------*/
FoamFile
{
    version     2.0;
    format      ascii;
    arch        "LSB;label=32;scalar=64";
    class       volScalarField;
    location    "8.31363e-07";
    object      rho_dof1;
}
// * * * * * * * * * * * * * * * * * * * * * * * * * * * * * * * * * * * * * //

dimensions      [0 0 0 0 0 0 0];

internalField   nonuniform List<scalar> 
625
(
1.0164e-05
-3.30147e-13
-4.77503e-09
1.01641e-05
-3.30144e-13
-1.07909e-09
1.01641e-05
-3.30148e-13
-2.31686e-09
1.01641e-05
-3.30148e-13
-2.31319e-09
1.01641e-05
-3.30148e-13
-2.31319e-09
1.01641e-05
-3.30148e-13
-2.31319e-09
1.01641e-05
-3.30148e-13
-2.31319e-09
1.01641e-05
-3.30148e-13
-2.31319e-09
1.01641e-05
-3.30148e-13
-2.31319e-09
1.01641e-05
-3.30148e-13
-2.31319e-09
1.01641e-05
-3.30148e-13
-2.31319e-09
1.01641e-05
-3.30148e-13
-2.31319e-09
1.01641e-05
-3.30148e-13
-2.31319e-09
1.01641e-05
-3.30148e-13
-2.31319e-09
1.01641e-05
-3.30148e-13
-2.31319e-09
1.01641e-05
-3.30148e-13
-2.31319e-09
1.01641e-05
-3.30148e-13
-2.31319e-09
1.01641e-05
-3.30148e-13
-2.31319e-09
1.01641e-05
-3.30148e-13
-2.31319e-09
1.01641e-05
-3.30148e-13
-2.31319e-09
1.01641e-05
-3.30148e-13
-2.31319e-09
1.01641e-05
-3.30148e-13
-2.31319e-09
1.01641e-05
-3.30148e-13
-2.31313e-09
1.01641e-05
-3.30148e-13
-2.34956e-09
1.01664e-05
-3.30278e-13
-1.78416e-10
-2.54736e-08
-2.56493e-08
-2.58274e-08
-2.60081e-08
-2.61913e-08
-2.63771e-08
-2.65655e-08
-2.67567e-08
-2.69506e-08
-2.71473e-08
-2.7347e-08
-2.75496e-08
-2.77553e-08
-2.7964e-08
-2.81759e-08
-2.8391e-08
-2.86095e-08
-2.88313e-08
-2.90566e-08
-2.92855e-08
-2.9518e-08
-1.51367e-06
-2.59086e-08
-2.60903e-08
-2.62747e-08
-2.64616e-08
-2.66512e-08
-2.68435e-08
-2.70387e-08
-2.72366e-08
-2.74376e-08
-2.76415e-08
-2.78484e-08
-2.80585e-08
-2.82718e-08
-2.84883e-08
-2.87082e-08
-2.89315e-08
-2.91583e-08
-2.93886e-08
-2.96227e-08
-2.98605e-08
-3.01022e-08
4.76658e-08
-2.58917e-08
-2.60732e-08
-2.62572e-08
-2.64439e-08
-2.66332e-08
-2.68253e-08
-2.70202e-08
-2.72179e-08
-2.74186e-08
-2.76222e-08
-2.78288e-08
-2.80386e-08
-2.82516e-08
-2.84678e-08
-2.86874e-08
-2.89103e-08
-2.91368e-08
-2.93668e-08
-2.96006e-08
-2.9838e-08
-3.00793e-08
2.73417e-08
-2.58748e-08
-2.60561e-08
-2.62399e-08
-2.64263e-08
-2.66155e-08
-2.68073e-08
-2.70019e-08
-2.71993e-08
-2.73997e-08
-2.7603e-08
-2.78094e-08
-2.80189e-08
-2.82316e-08
-2.84475e-08
-2.86668e-08
-2.88894e-08
-2.91155e-08
-2.93453e-08
-2.95786e-08
-2.98157e-08
-3.00566e-08
2.75445e-08
-2.5858e-08
-2.60391e-08
-2.62226e-08
-2.64088e-08
-2.65977e-08
-2.67892e-08
-2.69836e-08
-2.71808e-08
-2.73809e-08
-2.75839e-08
-2.779e-08
-2.79992e-08
-2.82116e-08
-2.84272e-08
-2.86462e-08
-2.88685e-08
-2.90943e-08
-2.93237e-08
-2.95567e-08
-2.97934e-08
-3.0034e-08
2.7751e-08
-2.58412e-08
-2.6022e-08
-2.62054e-08
-2.63913e-08
-2.65799e-08
-2.67712e-08
-2.69653e-08
-2.71622e-08
-2.73621e-08
-2.75648e-08
-2.77706e-08
-2.79796e-08
-2.81916e-08
-2.84069e-08
-2.86256e-08
-2.88476e-08
-2.90731e-08
-2.93021e-08
-2.95348e-08
-2.97712e-08
-3.00114e-08
2.7962e-08
-2.58244e-08
-2.6005e-08
-2.61881e-08
-2.63738e-08
-2.65621e-08
-2.67532e-08
-2.6947e-08
-2.71437e-08
-2.73432e-08
-2.75457e-08
-2.77513e-08
-2.79599e-08
-2.81717e-08
-2.83867e-08
-2.8605e-08
-2.88267e-08
-2.90518e-08
-2.92806e-08
-2.95129e-08
-2.97489e-08
-2.99888e-08
2.81784e-08
-2.58076e-08
-2.5988e-08
-2.61708e-08
-2.63563e-08
-2.65444e-08
-2.67352e-08
-2.69288e-08
-2.71252e-08
-2.73244e-08
-2.75266e-08
-2.77319e-08
-2.79402e-08
-2.81517e-08
-2.83664e-08
-2.85844e-08
-2.88058e-08
-2.90307e-08
-2.9259e-08
-2.9491e-08
-2.97267e-08
-2.99662e-08
2.84e-08
-2.57908e-08
-2.5971e-08
-2.61536e-08
-2.63388e-08
-2.65267e-08
-2.67172e-08
-2.69105e-08
-2.71066e-08
-2.73056e-08
-2.75076e-08
-2.77125e-08
-2.79206e-08
-2.81318e-08
-2.83462e-08
-2.85639e-08
-2.87849e-08
-2.90094e-08
-2.92375e-08
-2.94691e-08
-2.97045e-08
-2.99437e-08
2.86271e-08
-2.57741e-08
-2.59539e-08
-2.61363e-08
-2.63213e-08
-2.65089e-08
-2.66992e-08
-2.68922e-08
-2.70881e-08
-2.72868e-08
-2.74885e-08
-2.76932e-08
-2.79009e-08
-2.81118e-08
-2.83259e-08
-2.85433e-08
-2.8764e-08
-2.89883e-08
-2.9216e-08
-2.94473e-08
-2.96823e-08
-2.99211e-08
2.88544e-08
-2.5757e-08
-2.59366e-08
-2.61187e-08
-2.63034e-08
-2.64908e-08
-2.66808e-08
-2.68736e-08
-2.70692e-08
-2.72677e-08
-2.74691e-08
-2.76734e-08
-2.78809e-08
-2.80915e-08
-2.83053e-08
-2.85223e-08
-2.87428e-08
-2.89666e-08
-2.9194e-08
-2.9425e-08
-2.96596e-08
-2.98981e-08
2.89314e-08
-2.57399e-08
-2.59192e-08
-2.61011e-08
-2.62856e-08
-2.64727e-08
-2.66625e-08
-2.6855e-08
-2.70503e-08
-2.72485e-08
-2.74496e-08
-2.76537e-08
-2.78609e-08
-2.80711e-08
-2.82847e-08
-2.85014e-08
-2.87215e-08
-2.8945e-08
-2.91721e-08
-2.94027e-08
-2.9637e-08
-2.9875e-08
2.89997e-08
-2.57227e-08
-2.59019e-08
-2.60835e-08
-2.62678e-08
-2.64546e-08
-2.66442e-08
-2.68364e-08
-2.70315e-08
-2.72294e-08
-2.74302e-08
-2.7634e-08
-2.78408e-08
-2.80509e-08
-2.8264e-08
-2.84805e-08
-2.87002e-08
-2.89234e-08
-2.91501e-08
-2.93804e-08
-2.96143e-08
-2.98521e-08
2.90703e-08
-2.57057e-08
-2.58846e-08
-2.6066e-08
-2.625e-08
-2.64366e-08
-2.66258e-08
-2.68178e-08
-2.70126e-08
-2.72102e-08
-2.74108e-08
-2.76143e-08
-2.78209e-08
-2.80305e-08
-2.82434e-08
-2.84595e-08
-2.8679e-08
-2.89018e-08
-2.91282e-08
-2.93581e-08
-2.95917e-08
-2.98291e-08
2.91433e-08
-2.56886e-08
-2.58673e-08
-2.60484e-08
-2.62322e-08
-2.64185e-08
-2.66075e-08
-2.67992e-08
-2.69937e-08
-2.71911e-08
-2.73913e-08
-2.75946e-08
-2.78009e-08
-2.80102e-08
-2.82228e-08
-2.84386e-08
-2.86577e-08
-2.88803e-08
-2.91063e-08
-2.93359e-08
-2.95691e-08
-2.98061e-08
2.92186e-08
-2.56715e-08
-2.585e-08
-2.60309e-08
-2.62144e-08
-2.64004e-08
-2.65892e-08
-2.67806e-08
-2.69749e-08
-2.7172e-08
-2.7372e-08
-2.75749e-08
-2.77809e-08
-2.799e-08
-2.82022e-08
-2.84177e-08
-2.86365e-08
-2.88587e-08
-2.90844e-08
-2.93137e-08
-2.95465e-08
-2.97832e-08
2.92963e-08
-2.56545e-08
-2.58326e-08
-2.60134e-08
-2.61966e-08
-2.63824e-08
-2.65709e-08
-2.67621e-08
-2.69561e-08
-2.71529e-08
-2.73526e-08
-2.75552e-08
-2.77609e-08
-2.79697e-08
-2.81817e-08
-2.83968e-08
-2.86153e-08
-2.88372e-08
-2.90625e-08
-2.92914e-08
-2.9524e-08
-2.97602e-08
2.93763e-08
-2.56374e-08
-2.58154e-08
-2.59958e-08
-2.61788e-08
-2.63644e-08
-2.65526e-08
-2.67435e-08
-2.69373e-08
-2.71338e-08
-2.73332e-08
-2.75356e-08
-2.7741e-08
-2.79494e-08
-2.81611e-08
-2.83759e-08
-2.85941e-08
-2.88157e-08
-2.90407e-08
-2.92692e-08
-2.95014e-08
-2.97373e-08
2.94587e-08
-2.56204e-08
-2.57981e-08
-2.59783e-08
-2.6161e-08
-2.63464e-08
-2.65343e-08
-2.6725e-08
-2.69184e-08
-2.71147e-08
-2.73138e-08
-2.75159e-08
-2.7721e-08
-2.79292e-08
-2.81405e-08
-2.83551e-08
-2.85729e-08
-2.87942e-08
-2.90188e-08
-2.9247e-08
-2.94789e-08
-2.97144e-08
2.95435e-08
-2.56033e-08
-2.57808e-08
-2.59608e-08
-2.61433e-08
-2.63284e-08
-2.65161e-08
-2.67065e-08
-2.68996e-08
-2.70956e-08
-2.72945e-08
-2.74963e-08
-2.77011e-08
-2.7909e-08
-2.812e-08
-2.83342e-08
-2.85518e-08
-2.87726e-08
-2.8997e-08
-2.92248e-08
-2.94563e-08
-2.96915e-08
2.96305e-08
-2.55863e-08
-2.57636e-08
-2.59433e-08
-2.61255e-08
-2.63103e-08
-2.64978e-08
-2.6688e-08
-2.68809e-08
-2.70766e-08
-2.72751e-08
-2.74767e-08
-2.76812e-08
-2.78887e-08
-2.80995e-08
-2.83134e-08
-2.85306e-08
-2.87512e-08
-2.89752e-08
-2.92027e-08
-2.94338e-08
-2.96686e-08
2.972e-08
-2.55693e-08
-2.57463e-08
-2.59258e-08
-2.61078e-08
-2.62924e-08
-2.64796e-08
-2.66695e-08
-2.68621e-08
-2.70575e-08
-2.72558e-08
-2.7457e-08
-2.76613e-08
-2.78685e-08
-2.80789e-08
-2.82926e-08
-2.85094e-08
-2.87297e-08
-2.89534e-08
-2.91805e-08
-2.94113e-08
-2.96457e-08
2.98118e-08
-2.55523e-08
-2.57291e-08
-2.59083e-08
-2.60901e-08
-2.62744e-08
-2.64613e-08
-2.6651e-08
-2.68433e-08
-2.70385e-08
-2.72365e-08
-2.74374e-08
-2.76414e-08
-2.78483e-08
-2.80585e-08
-2.82717e-08
-2.84883e-08
-2.87082e-08
-2.89316e-08
-2.91584e-08
-2.93888e-08
-2.96229e-08
2.99059e-08
-2.55353e-08
-2.57119e-08
-2.58908e-08
-2.60724e-08
-2.62564e-08
-2.64431e-08
-2.66325e-08
-2.68246e-08
-2.70194e-08
-2.72172e-08
-2.74178e-08
-2.76215e-08
-2.78282e-08
-2.8038e-08
-2.8251e-08
-2.84672e-08
-2.86868e-08
-2.89098e-08
-2.91363e-08
-2.93663e-08
-2.96001e-08
2.99944e-08
-2.55237e-08
-2.57001e-08
-2.58789e-08
-2.60603e-08
-2.62442e-08
-2.64307e-08
-2.66199e-08
-2.68118e-08
-2.70065e-08
-2.7204e-08
-2.74045e-08
-2.76079e-08
-2.78144e-08
-2.8024e-08
-2.82368e-08
-2.84528e-08
-2.86721e-08
-2.88949e-08
-2.91212e-08
-2.9351e-08
-2.95845e-08
3.24715e-08
)
;

boundaryField
{
    inlet
    {
        type            calculated;
        value           uniform 0;
    }
    outlet2
    {
        type            calculated;
        value           uniform 0;
    }
    outlet1
    {
        type            calculated;
        value           uniform 0;
    }
    wall
    {
        type            calculated;
        value           uniform 0;
    }
    symmetryBottom
    {
        type            symmetry;
    }
    symmetryZ0
    {
        type            symmetry;
    }
    symmetryZ05
    {
        type            symmetry;
    }
}


// ************************************************************************* //
