/*--------------------------------*- C++ -*----------------------------------*\
| =========                 |                                                 |
| \\      /  F ield         | OpenFOAM: The Open Source CFD Toolbox           |
|  \\    /   O peration     | Version:  2412                                  |
|   \\  /    A nd           | Website:  www.openfoam.com                      |
|    \\/     M anipulation  |                                                 |
\*---------------------------------------------------------------------------*/
FoamFile
{
    version     2.0;
    format      ascii;
    arch        "LSB;label=32;scalar=64";
    class       volScalarField;
    location    "8.31363e-07";
    object      rho_dof0;
}
// * * * * * * * * * * * * * * * * * * * * * * * * * * * * * * * * * * * * * //

dimensions      [0 0 0 0 0 0 0];

internalField   nonuniform List<scalar> 
625
(
2.84169e-05
2.46261e-05
2.46261e-05
2.84174e-05
2.46265e-05
2.46265e-05
2.84169e-05
2.46261e-05
2.46261e-05
2.84169e-05
2.46261e-05
2.46261e-05
2.84169e-05
2.46261e-05
2.46261e-05
2.84169e-05
2.46261e-05
2.46261e-05
2.84169e-05
2.46261e-05
2.46261e-05
2.84169e-05
2.46261e-05
2.46261e-05
2.84169e-05
2.46261e-05
2.46261e-05
2.84169e-05
2.46261e-05
2.46261e-05
2.84169e-05
2.46261e-05
2.46261e-05
2.84169e-05
2.46261e-05
2.46261e-05
2.84169e-05
2.46261e-05
2.46261e-05
2.84169e-05
2.46261e-05
2.46261e-05
2.84169e-05
2.46261e-05
2.46261e-05
2.84169e-05
2.46261e-05
2.46261e-05
2.84169e-05
2.46261e-05
2.46261e-05
2.84169e-05
2.46261e-05
2.46261e-05
2.84169e-05
2.46261e-05
2.46261e-05
2.84169e-05
2.46261e-05
2.46261e-05
2.84169e-05
2.46261e-05
2.46261e-05
2.84169e-05
2.46261e-05
2.46261e-05
2.84169e-05
2.46261e-05
2.46261e-05
2.84169e-05
2.46261e-05
2.46261e-05
2.84171e-05
2.46253e-05
2.46253e-05
2.52491e-05
2.52494e-05
2.52496e-05
2.52499e-05
2.52501e-05
2.52504e-05
2.52507e-05
2.52509e-05
2.52512e-05
2.52515e-05
2.52518e-05
2.52521e-05
2.52524e-05
2.52528e-05
2.52531e-05
2.52534e-05
2.52538e-05
2.52541e-05
2.52545e-05
2.52549e-05
2.52553e-05
2.5277e-05
2.56809e-05
2.5684e-05
2.56872e-05
2.56904e-05
2.56937e-05
2.5697e-05
2.57003e-05
2.57037e-05
2.57072e-05
2.57107e-05
2.57142e-05
2.57178e-05
2.57215e-05
2.57252e-05
2.5729e-05
2.57329e-05
2.57367e-05
2.57407e-05
2.57447e-05
2.57488e-05
2.5753e-05
2.57751e-05
2.56567e-05
2.56596e-05
2.56626e-05
2.56656e-05
2.56686e-05
2.56717e-05
2.56749e-05
2.5678e-05
2.56813e-05
2.56845e-05
2.56878e-05
2.56912e-05
2.56946e-05
2.56981e-05
2.57016e-05
2.57052e-05
2.57088e-05
2.57125e-05
2.57163e-05
2.57201e-05
2.57239e-05
2.57461e-05
2.56376e-05
2.56404e-05
2.56432e-05
2.56461e-05
2.5649e-05
2.56519e-05
2.56549e-05
2.5658e-05
2.5661e-05
2.56642e-05
2.56673e-05
2.56705e-05
2.56738e-05
2.56771e-05
2.56805e-05
2.56839e-05
2.56873e-05
2.56909e-05
2.56944e-05
2.56981e-05
2.57018e-05
2.57239e-05
2.56186e-05
2.56212e-05
2.56239e-05
2.56266e-05
2.56294e-05
2.56322e-05
2.5635e-05
2.56379e-05
2.56408e-05
2.56438e-05
2.56468e-05
2.56499e-05
2.5653e-05
2.56561e-05
2.56593e-05
2.56626e-05
2.56659e-05
2.56692e-05
2.56726e-05
2.56761e-05
2.56796e-05
2.57017e-05
2.55995e-05
2.5602e-05
2.56045e-05
2.56071e-05
2.56098e-05
2.56124e-05
2.56151e-05
2.56179e-05
2.56206e-05
2.56234e-05
2.56263e-05
2.56292e-05
2.56322e-05
2.56352e-05
2.56382e-05
2.56413e-05
2.56444e-05
2.56476e-05
2.56508e-05
2.56541e-05
2.56575e-05
2.56795e-05
2.55804e-05
2.55828e-05
2.55852e-05
2.55877e-05
2.55901e-05
2.55927e-05
2.55952e-05
2.55978e-05
2.56004e-05
2.56031e-05
2.56058e-05
2.56086e-05
2.56114e-05
2.56142e-05
2.56171e-05
2.562e-05
2.5623e-05
2.5626e-05
2.5629e-05
2.56322e-05
2.56353e-05
2.56574e-05
2.55614e-05
2.55636e-05
2.55659e-05
2.55682e-05
2.55706e-05
2.55729e-05
2.55753e-05
2.55778e-05
2.55803e-05
2.55828e-05
2.55854e-05
2.5588e-05
2.55906e-05
2.55933e-05
2.5596e-05
2.55987e-05
2.56015e-05
2.56044e-05
2.56073e-05
2.56102e-05
2.56132e-05
2.56353e-05
2.55423e-05
2.55444e-05
2.55466e-05
2.55488e-05
2.5551e-05
2.55532e-05
2.55555e-05
2.55578e-05
2.55601e-05
2.55625e-05
2.55649e-05
2.55673e-05
2.55698e-05
2.55723e-05
2.55749e-05
2.55775e-05
2.55801e-05
2.55828e-05
2.55855e-05
2.55883e-05
2.55911e-05
2.56131e-05
2.55233e-05
2.55253e-05
2.55273e-05
2.55293e-05
2.55314e-05
2.55335e-05
2.55356e-05
2.55378e-05
2.554e-05
2.55422e-05
2.55445e-05
2.55467e-05
2.55491e-05
2.55514e-05
2.55538e-05
2.55563e-05
2.55587e-05
2.55612e-05
2.55638e-05
2.55664e-05
2.5569e-05
2.5591e-05
2.55043e-05
2.55062e-05
2.55081e-05
2.551e-05
2.55119e-05
2.55139e-05
2.55158e-05
2.55179e-05
2.55199e-05
2.5522e-05
2.55241e-05
2.55262e-05
2.55284e-05
2.55306e-05
2.55328e-05
2.55351e-05
2.55374e-05
2.55397e-05
2.55421e-05
2.55445e-05
2.5547e-05
2.5569e-05
2.54854e-05
2.54871e-05
2.54888e-05
2.54906e-05
2.54924e-05
2.54942e-05
2.54961e-05
2.54979e-05
2.54998e-05
2.55018e-05
2.55037e-05
2.55057e-05
2.55077e-05
2.55098e-05
2.55118e-05
2.55139e-05
2.55161e-05
2.55183e-05
2.55205e-05
2.55227e-05
2.5525e-05
2.5547e-05
2.54664e-05
2.5468e-05
2.54696e-05
2.54713e-05
2.54729e-05
2.54746e-05
2.54763e-05
2.5478e-05
2.54798e-05
2.54815e-05
2.54834e-05
2.54852e-05
2.5487e-05
2.54889e-05
2.54909e-05
2.54928e-05
2.54948e-05
2.54968e-05
2.54988e-05
2.55009e-05
2.5503e-05
2.5525e-05
2.54475e-05
2.54489e-05
2.54504e-05
2.54519e-05
2.54534e-05
2.5455e-05
2.54565e-05
2.54581e-05
2.54597e-05
2.54614e-05
2.5463e-05
2.54647e-05
2.54664e-05
2.54681e-05
2.54699e-05
2.54717e-05
2.54735e-05
2.54753e-05
2.54772e-05
2.54791e-05
2.5481e-05
2.5503e-05
2.54286e-05
2.54299e-05
2.54312e-05
2.54326e-05
2.5434e-05
2.54354e-05
2.54368e-05
2.54382e-05
2.54397e-05
2.54412e-05
2.54427e-05
2.54442e-05
2.54458e-05
2.54473e-05
2.54489e-05
2.54506e-05
2.54522e-05
2.54539e-05
2.54556e-05
2.54573e-05
2.54591e-05
2.5481e-05
2.54097e-05
2.54109e-05
2.54121e-05
2.54133e-05
2.54145e-05
2.54158e-05
2.54171e-05
2.54184e-05
2.54197e-05
2.5421e-05
2.54224e-05
2.54238e-05
2.54251e-05
2.54266e-05
2.5428e-05
2.54295e-05
2.5431e-05
2.54325e-05
2.5434e-05
2.54355e-05
2.54371e-05
2.54591e-05
2.53908e-05
2.53918e-05
2.53929e-05
2.5394e-05
2.53951e-05
2.53962e-05
2.53974e-05
2.53985e-05
2.53997e-05
2.54009e-05
2.54021e-05
2.54033e-05
2.54045e-05
2.54058e-05
2.54071e-05
2.54084e-05
2.54097e-05
2.5411e-05
2.54124e-05
2.54138e-05
2.54152e-05
2.54371e-05
2.53719e-05
2.53728e-05
2.53737e-05
2.53747e-05
2.53757e-05
2.53767e-05
2.53777e-05
2.53787e-05
2.53797e-05
2.53807e-05
2.53818e-05
2.53829e-05
2.5384e-05
2.53851e-05
2.53862e-05
2.53873e-05
2.53885e-05
2.53897e-05
2.53909e-05
2.53921e-05
2.53933e-05
2.54152e-05
2.5353e-05
2.53538e-05
2.53546e-05
2.53554e-05
2.53563e-05
2.53571e-05
2.5358e-05
2.53588e-05
2.53597e-05
2.53606e-05
2.53615e-05
2.53624e-05
2.53634e-05
2.53643e-05
2.53653e-05
2.53663e-05
2.53673e-05
2.53683e-05
2.53693e-05
2.53703e-05
2.53714e-05
2.53933e-05
2.53341e-05
2.53348e-05
2.53355e-05
2.53362e-05
2.53369e-05
2.53376e-05
2.53383e-05
2.5339e-05
2.53398e-05
2.53405e-05
2.53413e-05
2.5342e-05
2.53428e-05
2.53436e-05
2.53444e-05
2.53452e-05
2.53461e-05
2.53469e-05
2.53478e-05
2.53486e-05
2.53495e-05
2.53714e-05
2.53153e-05
2.53158e-05
2.53164e-05
2.53169e-05
2.53175e-05
2.53181e-05
2.53186e-05
2.53192e-05
2.53198e-05
2.53204e-05
2.5321e-05
2.53216e-05
2.53223e-05
2.53229e-05
2.53236e-05
2.53242e-05
2.53249e-05
2.53256e-05
2.53263e-05
2.5327e-05
2.53277e-05
2.53495e-05
2.52965e-05
2.52969e-05
2.52973e-05
2.52977e-05
2.52981e-05
2.52985e-05
2.5299e-05
2.52994e-05
2.52999e-05
2.53003e-05
2.53008e-05
2.53013e-05
2.53017e-05
2.53022e-05
2.53027e-05
2.53032e-05
2.53037e-05
2.53042e-05
2.53048e-05
2.53053e-05
2.53058e-05
2.53277e-05
2.52776e-05
2.52779e-05
2.52782e-05
2.52785e-05
2.52788e-05
2.52791e-05
2.52793e-05
2.52796e-05
2.528e-05
2.52803e-05
2.52806e-05
2.52809e-05
2.52812e-05
2.52816e-05
2.52819e-05
2.52822e-05
2.52826e-05
2.52829e-05
2.52833e-05
2.52836e-05
2.5284e-05
2.53058e-05
2.52588e-05
2.5259e-05
2.52591e-05
2.52593e-05
2.52594e-05
2.52596e-05
2.52597e-05
2.52599e-05
2.526e-05
2.52602e-05
2.52604e-05
2.52605e-05
2.52607e-05
2.52609e-05
2.52611e-05
2.52613e-05
2.52614e-05
2.52616e-05
2.52618e-05
2.5262e-05
2.52622e-05
2.5284e-05
2.52393e-05
2.52393e-05
2.52393e-05
2.52393e-05
2.52394e-05
2.52394e-05
2.52394e-05
2.52394e-05
2.52394e-05
2.52394e-05
2.52394e-05
2.52394e-05
2.52395e-05
2.52395e-05
2.52395e-05
2.52395e-05
2.52395e-05
2.52395e-05
2.52395e-05
2.52396e-05
2.52396e-05
2.52614e-05
)
;

boundaryField
{
    inlet
    {
        type            calculated;
        value           uniform 2.81085e-05;
    }
    outlet2
    {
        type            calculated;
        value           uniform 2.81085e-05;
    }
    outlet1
    {
        type            calculated;
        value           uniform 2.81085e-05;
    }
    wall
    {
        type            calculated;
        value           uniform 2.81085e-05;
    }
    symmetryBottom
    {
        type            symmetry;
    }
    symmetryZ0
    {
        type            symmetry;
    }
    symmetryZ05
    {
        type            symmetry;
    }
}


// ************************************************************************* //
