/*--------------------------------*- C++ -*----------------------------------*\
| =========                 |                                                 |
| \\      /  F ield         | OpenFOAM: The Open Source CFD Toolbox           |
|  \\    /   O peration     | Version:  2412                                  |
|   \\  /    A nd           | Website:  www.openfoam.com                      |
|    \\/     M anipulation  |                                                 |
\*---------------------------------------------------------------------------*/
FoamFile
{
    version     2.0;
    format      ascii;
    arch        "LSB;label=32;scalar=64";
    class       volScalarField;
    location    "8.31363e-07";
    object      rho_dof3;
}
// * * * * * * * * * * * * * * * * * * * * * * * * * * * * * * * * * * * * * //

dimensions      [0 0 0 0 0 0 0];

internalField   nonuniform List<scalar> 
625
(
1.7993e-07
1.63919e-07
1.45512e-07
1.79932e-07
1.63921e-07
1.45514e-07
1.79932e-07
1.63921e-07
1.45514e-07
1.79932e-07
1.63921e-07
1.45514e-07
1.79932e-07
1.63921e-07
1.45514e-07
1.79932e-07
1.63921e-07
1.45514e-07
1.79932e-07
1.63921e-07
1.45514e-07
1.79932e-07
1.63921e-07
1.45514e-07
1.79932e-07
1.63921e-07
1.45514e-07
1.79932e-07
1.63921e-07
1.45514e-07
1.79932e-07
1.63921e-07
1.45514e-07
1.79932e-07
1.63921e-07
1.45514e-07
1.79932e-07
1.63921e-07
1.45514e-07
1.79932e-07
1.63921e-07
1.45514e-07
1.79932e-07
1.63921e-07
1.45514e-07
1.79932e-07
1.63921e-07
1.45514e-07
1.79932e-07
1.63921e-07
1.45514e-07
1.79932e-07
1.63921e-07
1.45514e-07
1.79932e-07
1.63921e-07
1.45514e-07
1.79932e-07
1.63921e-07
1.45514e-07
1.79932e-07
1.63921e-07
1.45514e-07
1.79932e-07
1.63921e-07
1.45514e-07
1.79932e-07
1.63921e-07
1.45514e-07
1.79932e-07
1.63921e-07
1.45367e-07
1.79976e-07
1.63958e-07
1.6374e-07
1.67879e-07
1.67881e-07
1.67883e-07
1.67884e-07
1.67886e-07
1.67888e-07
1.6789e-07
1.67892e-07
1.67894e-07
1.67896e-07
1.67898e-07
1.679e-07
1.67902e-07
1.67904e-07
1.67906e-07
1.67909e-07
1.67911e-07
1.67913e-07
1.67915e-07
1.67918e-07
1.6792e-07
1.80941e-07
1.7073e-07
1.70752e-07
1.70774e-07
1.70796e-07
1.70818e-07
1.70841e-07
1.70864e-07
1.70887e-07
1.70911e-07
1.70935e-07
1.7096e-07
1.70984e-07
1.7101e-07
1.71035e-07
1.71061e-07
1.71087e-07
1.71114e-07
1.71141e-07
1.71169e-07
1.71197e-07
1.71226e-07
1.84522e-07
1.70621e-07
1.70642e-07
1.70663e-07
1.70684e-07
1.70705e-07
1.70727e-07
1.7075e-07
1.70772e-07
1.70795e-07
1.70818e-07
1.70842e-07
1.70866e-07
1.7089e-07
1.70915e-07
1.7094e-07
1.70965e-07
1.70991e-07
1.71017e-07
1.71044e-07
1.71071e-07
1.71098e-07
1.84382e-07
1.70512e-07
1.70532e-07
1.70552e-07
1.70572e-07
1.70593e-07
1.70614e-07
1.70636e-07
1.70657e-07
1.70679e-07
1.70702e-07
1.70724e-07
1.70747e-07
1.70771e-07
1.70795e-07
1.70819e-07
1.70843e-07
1.70868e-07
1.70893e-07
1.70919e-07
1.70945e-07
1.70971e-07
1.84243e-07
1.70402e-07
1.70422e-07
1.70441e-07
1.70461e-07
1.70481e-07
1.70501e-07
1.70522e-07
1.70543e-07
1.70564e-07
1.70585e-07
1.70607e-07
1.70629e-07
1.70652e-07
1.70674e-07
1.70698e-07
1.70721e-07
1.70745e-07
1.70769e-07
1.70794e-07
1.70819e-07
1.70844e-07
1.84104e-07
1.70293e-07
1.70312e-07
1.7033e-07
1.70349e-07
1.70369e-07
1.70388e-07
1.70408e-07
1.70428e-07
1.70448e-07
1.70469e-07
1.7049e-07
1.70511e-07
1.70533e-07
1.70554e-07
1.70577e-07
1.70599e-07
1.70622e-07
1.70646e-07
1.70669e-07
1.70693e-07
1.70718e-07
1.83966e-07
1.70184e-07
1.70202e-07
1.7022e-07
1.70238e-07
1.70256e-07
1.70275e-07
1.70294e-07
1.70313e-07
1.70333e-07
1.70352e-07
1.70373e-07
1.70393e-07
1.70414e-07
1.70435e-07
1.70456e-07
1.70478e-07
1.705e-07
1.70522e-07
1.70545e-07
1.70568e-07
1.70591e-07
1.83827e-07
1.70075e-07
1.70092e-07
1.70109e-07
1.70127e-07
1.70144e-07
1.70162e-07
1.7018e-07
1.70199e-07
1.70217e-07
1.70236e-07
1.70255e-07
1.70275e-07
1.70295e-07
1.70315e-07
1.70335e-07
1.70356e-07
1.70377e-07
1.70398e-07
1.7042e-07
1.70442e-07
1.70464e-07
1.83689e-07
1.69966e-07
1.69982e-07
1.69999e-07
1.70015e-07
1.70032e-07
1.70049e-07
1.70067e-07
1.70084e-07
1.70102e-07
1.7012e-07
1.70138e-07
1.70157e-07
1.70176e-07
1.70195e-07
1.70214e-07
1.70234e-07
1.70254e-07
1.70275e-07
1.70295e-07
1.70316e-07
1.70338e-07
1.8355e-07
1.69857e-07
1.69873e-07
1.69888e-07
1.69904e-07
1.6992e-07
1.69936e-07
1.69953e-07
1.69969e-07
1.69986e-07
1.70004e-07
1.70021e-07
1.70039e-07
1.70057e-07
1.70075e-07
1.70094e-07
1.70113e-07
1.70132e-07
1.70151e-07
1.70171e-07
1.70191e-07
1.70211e-07
1.83412e-07
1.69746e-07
1.6976e-07
1.69775e-07
1.6979e-07
1.69805e-07
1.69821e-07
1.69837e-07
1.69852e-07
1.69869e-07
1.69885e-07
1.69901e-07
1.69918e-07
1.69935e-07
1.69953e-07
1.6997e-07
1.69988e-07
1.70006e-07
1.70025e-07
1.70044e-07
1.70063e-07
1.70082e-07
1.83271e-07
1.69635e-07
1.69648e-07
1.69662e-07
1.69677e-07
1.69691e-07
1.69706e-07
1.6972e-07
1.69735e-07
1.69751e-07
1.69766e-07
1.69782e-07
1.69798e-07
1.69814e-07
1.6983e-07
1.69847e-07
1.69864e-07
1.69881e-07
1.69899e-07
1.69916e-07
1.69934e-07
1.69953e-07
1.8313e-07
1.69523e-07
1.69536e-07
1.6955e-07
1.69563e-07
1.69577e-07
1.6959e-07
1.69604e-07
1.69618e-07
1.69633e-07
1.69647e-07
1.69662e-07
1.69677e-07
1.69693e-07
1.69708e-07
1.69724e-07
1.6974e-07
1.69756e-07
1.69772e-07
1.69789e-07
1.69806e-07
1.69823e-07
1.82989e-07
1.69412e-07
1.69424e-07
1.69437e-07
1.69449e-07
1.69462e-07
1.69475e-07
1.69488e-07
1.69502e-07
1.69515e-07
1.69529e-07
1.69543e-07
1.69557e-07
1.69571e-07
1.69586e-07
1.69601e-07
1.69616e-07
1.69631e-07
1.69646e-07
1.69662e-07
1.69678e-07
1.69694e-07
1.82848e-07
1.69301e-07
1.69312e-07
1.69324e-07
1.69336e-07
1.69348e-07
1.6936e-07
1.69372e-07
1.69385e-07
1.69397e-07
1.6941e-07
1.69423e-07
1.69437e-07
1.6945e-07
1.69464e-07
1.69477e-07
1.69492e-07
1.69506e-07
1.6952e-07
1.69535e-07
1.6955e-07
1.69565e-07
1.82707e-07
1.6919e-07
1.692e-07
1.69211e-07
1.69222e-07
1.69233e-07
1.69245e-07
1.69256e-07
1.69268e-07
1.6928e-07
1.69292e-07
1.69304e-07
1.69316e-07
1.69329e-07
1.69342e-07
1.69354e-07
1.69368e-07
1.69381e-07
1.69394e-07
1.69408e-07
1.69422e-07
1.69436e-07
1.82567e-07
1.69079e-07
1.69089e-07
1.69099e-07
1.69109e-07
1.69119e-07
1.6913e-07
1.6914e-07
1.69151e-07
1.69162e-07
1.69173e-07
1.69185e-07
1.69196e-07
1.69208e-07
1.6922e-07
1.69231e-07
1.69244e-07
1.69256e-07
1.69269e-07
1.69281e-07
1.69294e-07
1.69307e-07
1.82426e-07
1.68968e-07
1.68977e-07
1.68986e-07
1.68996e-07
1.69005e-07
1.69015e-07
1.69025e-07
1.69035e-07
1.69045e-07
1.69055e-07
1.69065e-07
1.69076e-07
1.69087e-07
1.69098e-07
1.69109e-07
1.6912e-07
1.69131e-07
1.69143e-07
1.69155e-07
1.69167e-07
1.69179e-07
1.82286e-07
1.68857e-07
1.68865e-07
1.68874e-07
1.68882e-07
1.68891e-07
1.689e-07
1.68909e-07
1.68918e-07
1.68927e-07
1.68937e-07
1.68946e-07
1.68956e-07
1.68966e-07
1.68976e-07
1.68986e-07
1.68996e-07
1.69007e-07
1.69017e-07
1.69028e-07
1.69039e-07
1.6905e-07
1.82145e-07
1.68746e-07
1.68754e-07
1.68761e-07
1.68769e-07
1.68777e-07
1.68785e-07
1.68793e-07
1.68802e-07
1.6881e-07
1.68818e-07
1.68827e-07
1.68836e-07
1.68845e-07
1.68854e-07
1.68863e-07
1.68872e-07
1.68882e-07
1.68891e-07
1.68901e-07
1.68911e-07
1.68921e-07
1.82005e-07
1.68635e-07
1.68642e-07
1.68649e-07
1.68656e-07
1.68663e-07
1.6867e-07
1.68678e-07
1.68685e-07
1.68693e-07
1.687e-07
1.68708e-07
1.68716e-07
1.68724e-07
1.68732e-07
1.6874e-07
1.68749e-07
1.68757e-07
1.68766e-07
1.68775e-07
1.68784e-07
1.68793e-07
1.81865e-07
1.68524e-07
1.6853e-07
1.68537e-07
1.68543e-07
1.68549e-07
1.68556e-07
1.68562e-07
1.68569e-07
1.68575e-07
1.68582e-07
1.68589e-07
1.68596e-07
1.68603e-07
1.6861e-07
1.68618e-07
1.68625e-07
1.68633e-07
1.6864e-07
1.68648e-07
1.68656e-07
1.68664e-07
1.81724e-07
1.68414e-07
1.68419e-07
1.68424e-07
1.6843e-07
1.68435e-07
1.68441e-07
1.68447e-07
1.68452e-07
1.68458e-07
1.68464e-07
1.6847e-07
1.68476e-07
1.68483e-07
1.68489e-07
1.68495e-07
1.68502e-07
1.68508e-07
1.68515e-07
1.68522e-07
1.68529e-07
1.68536e-07
1.81584e-07
1.68303e-07
1.68308e-07
1.68312e-07
1.68317e-07
1.68322e-07
1.68326e-07
1.68331e-07
1.68336e-07
1.68341e-07
1.68346e-07
1.68351e-07
1.68357e-07
1.68362e-07
1.68367e-07
1.68373e-07
1.68378e-07
1.68384e-07
1.6839e-07
1.68396e-07
1.68402e-07
1.68408e-07
1.81445e-07
1.68231e-07
1.68235e-07
1.68239e-07
1.68244e-07
1.68248e-07
1.68252e-07
1.68256e-07
1.68261e-07
1.68265e-07
1.6827e-07
1.68274e-07
1.68279e-07
1.68284e-07
1.68289e-07
1.68293e-07
1.68298e-07
1.68303e-07
1.68309e-07
1.68314e-07
1.68319e-07
1.68324e-07
1.81349e-07
)
;

boundaryField
{
    inlet
    {
        type            calculated;
        value           uniform 0;
    }
    outlet2
    {
        type            calculated;
        value           uniform 0;
    }
    outlet1
    {
        type            calculated;
        value           uniform 0;
    }
    wall
    {
        type            calculated;
        value           uniform 0;
    }
    symmetryBottom
    {
        type            symmetry;
    }
    symmetryZ0
    {
        type            symmetry;
    }
    symmetryZ05
    {
        type            symmetry;
    }
}


// ************************************************************************* //
