/*--------------------------------*- C++ -*----------------------------------*\
| =========                 |                                                 |
| \\      /  F ield         | OpenFOAM: The Open Source CFD Toolbox           |
|  \\    /   O peration     | Version:  2412                                  |
|   \\  /    A nd           | Website:  www.openfoam.com                      |
|    \\/     M anipulation  |                                                 |
\*---------------------------------------------------------------------------*/
FoamFile
{
    version     2.0;
    format      ascii;
    arch        "LSB;label=32;scalar=64";
    class       volScalarField;
    location    "8.31363e-07";
    object      rho_dof2;
}
// * * * * * * * * * * * * * * * * * * * * * * * * * * * * * * * * * * * * * //

dimensions      [0 0 0 0 0 0 0];

internalField   nonuniform List<scalar> 
625
(
2.28186e-09
4.76812e-09
-2.24001e-11
-1.71296e-09
1.02375e-09
-9.60653e-11
-3.84375e-10
2.26139e-09
-9.59599e-11
-3.88268e-10
2.25772e-09
-9.59601e-11
-3.88261e-10
2.25772e-09
-9.59601e-11
-3.88261e-10
2.25772e-09
-9.59601e-11
-3.88261e-10
2.25772e-09
-9.59601e-11
-3.88261e-10
2.25772e-09
-9.59601e-11
-3.88261e-10
2.25772e-09
-9.59601e-11
-3.88261e-10
2.25772e-09
-9.59601e-11
-3.88261e-10
2.25772e-09
-9.59601e-11
-3.88261e-10
2.25772e-09
-9.59601e-11
-3.88261e-10
2.25772e-09
-9.59601e-11
-3.88261e-10
2.25772e-09
-9.59601e-11
-3.88261e-10
2.25772e-09
-9.59601e-11
-3.88261e-10
2.25772e-09
-9.59601e-11
-3.88261e-10
2.25772e-09
-9.59601e-11
-3.88261e-10
2.25772e-09
-9.59601e-11
-3.88261e-10
2.25772e-09
-9.59601e-11
-3.88261e-10
2.25772e-09
-9.59601e-11
-3.88261e-10
2.25772e-09
-9.59601e-11
-3.88261e-10
2.25772e-09
-9.59601e-11
-3.8826e-10
2.25772e-09
-9.58351e-11
-3.88692e-10
2.26432e-09
8.03208e-11
-1.28983e-10
-1.38404e-10
-1.75466e-10
1.31464e-06
1.32331e-06
1.3321e-06
1.341e-06
1.35002e-06
1.35916e-06
1.36842e-06
1.37781e-06
1.38733e-06
1.39698e-06
1.40676e-06
1.41668e-06
1.42674e-06
1.43694e-06
1.44729e-06
1.45778e-06
1.46843e-06
1.47923e-06
1.49019e-06
1.50131e-06
1.5126e-06
4.95643e-12
-3.82935e-08
-3.86744e-08
-3.90622e-08
-3.94571e-08
-3.98594e-08
-4.02691e-08
-4.06865e-08
-4.11119e-08
-4.15454e-08
-4.19872e-08
-4.24376e-08
-4.28968e-08
-4.3365e-08
-4.38426e-08
-4.43298e-08
-4.48268e-08
-4.53339e-08
-4.58515e-08
-4.63798e-08
-4.69191e-08
-4.74699e-08
-1.11363e-10
-2.32391e-08
-2.34085e-08
-2.35803e-08
-2.37546e-08
-2.39315e-08
-2.41111e-08
-2.42934e-08
-2.44784e-08
-2.46663e-08
-2.4857e-08
-2.50508e-08
-2.52475e-08
-2.54474e-08
-2.56505e-08
-2.58568e-08
-2.60664e-08
-2.62795e-08
-2.64961e-08
-2.67162e-08
-2.694e-08
-2.71676e-08
-1.12628e-10
-2.34303e-08
-2.36003e-08
-2.37728e-08
-2.39478e-08
-2.41255e-08
-2.43057e-08
-2.44887e-08
-2.46745e-08
-2.4863e-08
-2.50545e-08
-2.52489e-08
-2.54464e-08
-2.5647e-08
-2.58507e-08
-2.60577e-08
-2.62681e-08
-2.64818e-08
-2.6699e-08
-2.69198e-08
-2.71443e-08
-2.73725e-08
-1.12552e-10
-2.36231e-08
-2.37939e-08
-2.39671e-08
-2.4143e-08
-2.43214e-08
-2.45024e-08
-2.46862e-08
-2.48727e-08
-2.50621e-08
-2.52544e-08
-2.54496e-08
-2.56479e-08
-2.58493e-08
-2.60538e-08
-2.62616e-08
-2.64727e-08
-2.66873e-08
-2.69053e-08
-2.71269e-08
-2.73522e-08
-2.75813e-08
-1.12486e-10
-2.38194e-08
-2.3991e-08
-2.41652e-08
-2.43418e-08
-2.4521e-08
-2.47029e-08
-2.48875e-08
-2.50749e-08
-2.52651e-08
-2.54582e-08
-2.56543e-08
-2.58534e-08
-2.60556e-08
-2.6261e-08
-2.64697e-08
-2.66817e-08
-2.6897e-08
-2.7116e-08
-2.73384e-08
-2.75646e-08
-2.77945e-08
-1.1242e-10
-2.40198e-08
-2.41923e-08
-2.43672e-08
-2.45447e-08
-2.47249e-08
-2.49076e-08
-2.50931e-08
-2.52814e-08
-2.54725e-08
-2.56665e-08
-2.58635e-08
-2.60635e-08
-2.62667e-08
-2.6473e-08
-2.66826e-08
-2.68955e-08
-2.71118e-08
-2.73317e-08
-2.75551e-08
-2.77822e-08
-2.80131e-08
-1.12354e-10
-2.42241e-08
-2.43975e-08
-2.45734e-08
-2.47518e-08
-2.49329e-08
-2.51166e-08
-2.53031e-08
-2.54923e-08
-2.56844e-08
-2.58794e-08
-2.60773e-08
-2.62783e-08
-2.64825e-08
-2.66898e-08
-2.69004e-08
-2.71143e-08
-2.73317e-08
-2.75525e-08
-2.7777e-08
-2.80051e-08
-2.8237e-08
-1.12289e-10
-2.44324e-08
-2.46068e-08
-2.47837e-08
-2.49631e-08
-2.51452e-08
-2.53299e-08
-2.55174e-08
-2.57076e-08
-2.59007e-08
-2.60967e-08
-2.62957e-08
-2.64978e-08
-2.6703e-08
-2.69114e-08
-2.7123e-08
-2.73381e-08
-2.75565e-08
-2.77784e-08
-2.8004e-08
-2.82332e-08
-2.84662e-08
-1.12223e-10
-2.464e-08
-2.48154e-08
-2.49934e-08
-2.51738e-08
-2.53569e-08
-2.55428e-08
-2.57313e-08
-2.59226e-08
-2.61168e-08
-2.63139e-08
-2.65141e-08
-2.67172e-08
-2.69235e-08
-2.71331e-08
-2.73458e-08
-2.7562e-08
-2.77816e-08
-2.80047e-08
-2.82314e-08
-2.84619e-08
-2.86961e-08
-1.12087e-10
-2.47217e-08
-2.48972e-08
-2.50753e-08
-2.52559e-08
-2.54392e-08
-2.56251e-08
-2.58137e-08
-2.60052e-08
-2.61995e-08
-2.63967e-08
-2.65969e-08
-2.68002e-08
-2.70066e-08
-2.72162e-08
-2.7429e-08
-2.76453e-08
-2.78649e-08
-2.80881e-08
-2.83149e-08
-2.85453e-08
-2.87796e-08
-1.12151e-10
-2.48019e-08
-2.49776e-08
-2.51557e-08
-2.53364e-08
-2.55197e-08
-2.57056e-08
-2.58943e-08
-2.60858e-08
-2.62802e-08
-2.64774e-08
-2.66776e-08
-2.68809e-08
-2.70873e-08
-2.72969e-08
-2.75097e-08
-2.77259e-08
-2.79455e-08
-2.81687e-08
-2.83954e-08
-2.86258e-08
-2.88599e-08
-1.12277e-10
-2.48839e-08
-2.50597e-08
-2.52379e-08
-2.54187e-08
-2.5602e-08
-2.57881e-08
-2.59769e-08
-2.61684e-08
-2.63628e-08
-2.65601e-08
-2.67604e-08
-2.69637e-08
-2.71701e-08
-2.73797e-08
-2.75926e-08
-2.78088e-08
-2.80284e-08
-2.82515e-08
-2.84782e-08
-2.87085e-08
-2.89426e-08
-1.12393e-10
-2.49677e-08
-2.51436e-08
-2.53219e-08
-2.55028e-08
-2.56863e-08
-2.58724e-08
-2.60613e-08
-2.62529e-08
-2.64474e-08
-2.66448e-08
-2.68452e-08
-2.70485e-08
-2.7255e-08
-2.74647e-08
-2.76776e-08
-2.78938e-08
-2.81135e-08
-2.83366e-08
-2.85633e-08
-2.87936e-08
-2.90277e-08
-1.12509e-10
-2.50532e-08
-2.52292e-08
-2.54077e-08
-2.55887e-08
-2.57724e-08
-2.59586e-08
-2.61476e-08
-2.63394e-08
-2.6534e-08
-2.67315e-08
-2.6932e-08
-2.71354e-08
-2.7342e-08
-2.75518e-08
-2.77647e-08
-2.7981e-08
-2.82007e-08
-2.84239e-08
-2.86507e-08
-2.8881e-08
-2.91151e-08
-1.12626e-10
-2.51404e-08
-2.53166e-08
-2.54953e-08
-2.56765e-08
-2.58603e-08
-2.60467e-08
-2.62359e-08
-2.64278e-08
-2.66225e-08
-2.68202e-08
-2.70207e-08
-2.72244e-08
-2.74311e-08
-2.76409e-08
-2.7854e-08
-2.80704e-08
-2.82903e-08
-2.85135e-08
-2.87403e-08
-2.89708e-08
-2.9205e-08
-1.12742e-10
-2.52294e-08
-2.54058e-08
-2.55847e-08
-2.5766e-08
-2.595e-08
-2.61367e-08
-2.6326e-08
-2.65181e-08
-2.6713e-08
-2.69108e-08
-2.71116e-08
-2.73154e-08
-2.75222e-08
-2.77322e-08
-2.79455e-08
-2.8162e-08
-2.83819e-08
-2.86053e-08
-2.88323e-08
-2.90629e-08
-2.92971e-08
-1.12857e-10
-2.53201e-08
-2.54967e-08
-2.56758e-08
-2.58574e-08
-2.60416e-08
-2.62285e-08
-2.6418e-08
-2.66103e-08
-2.68054e-08
-2.70035e-08
-2.72044e-08
-2.74084e-08
-2.76154e-08
-2.78256e-08
-2.80391e-08
-2.82558e-08
-2.84759e-08
-2.86994e-08
-2.89265e-08
-2.91572e-08
-2.93917e-08
-1.12973e-10
-2.54126e-08
-2.55894e-08
-2.57687e-08
-2.59506e-08
-2.6135e-08
-2.63222e-08
-2.65119e-08
-2.67045e-08
-2.68998e-08
-2.70981e-08
-2.72993e-08
-2.75034e-08
-2.77107e-08
-2.79211e-08
-2.81348e-08
-2.83517e-08
-2.8572e-08
-2.87957e-08
-2.9023e-08
-2.92539e-08
-2.94885e-08
-1.13089e-10
-2.55067e-08
-2.56839e-08
-2.58634e-08
-2.60456e-08
-2.62303e-08
-2.64177e-08
-2.66077e-08
-2.68005e-08
-2.69961e-08
-2.71947e-08
-2.73961e-08
-2.76005e-08
-2.78081e-08
-2.80187e-08
-2.82326e-08
-2.84498e-08
-2.86703e-08
-2.88943e-08
-2.91218e-08
-2.93529e-08
-2.95878e-08
-1.13204e-10
-2.56026e-08
-2.578e-08
-2.59599e-08
-2.61424e-08
-2.63274e-08
-2.6515e-08
-2.67054e-08
-2.68985e-08
-2.70944e-08
-2.72932e-08
-2.74949e-08
-2.76997e-08
-2.79074e-08
-2.81184e-08
-2.83326e-08
-2.855e-08
-2.87708e-08
-2.89951e-08
-2.92228e-08
-2.94542e-08
-2.96893e-08
-1.1332e-10
-2.57002e-08
-2.58779e-08
-2.60582e-08
-2.62409e-08
-2.64263e-08
-2.66142e-08
-2.68049e-08
-2.69984e-08
-2.71946e-08
-2.73937e-08
-2.75957e-08
-2.78008e-08
-2.80089e-08
-2.82202e-08
-2.84346e-08
-2.86524e-08
-2.88735e-08
-2.90981e-08
-2.93262e-08
-2.95578e-08
-2.97932e-08
-1.13435e-10
-2.57995e-08
-2.59776e-08
-2.61582e-08
-2.63413e-08
-2.6527e-08
-2.67153e-08
-2.69064e-08
-2.71001e-08
-2.72967e-08
-2.74962e-08
-2.76986e-08
-2.7904e-08
-2.81124e-08
-2.83241e-08
-2.85388e-08
-2.8757e-08
-2.89784e-08
-2.92033e-08
-2.94317e-08
-2.96638e-08
-2.98994e-08
-1.13549e-10
-2.58944e-08
-2.60728e-08
-2.62537e-08
-2.64371e-08
-2.66231e-08
-2.68117e-08
-2.7003e-08
-2.71971e-08
-2.7394e-08
-2.75937e-08
-2.77964e-08
-2.80021e-08
-2.82108e-08
-2.84227e-08
-2.86378e-08
-2.88561e-08
-2.90779e-08
-2.9303e-08
-2.95317e-08
-2.97639e-08
-2.99999e-08
-1.13671e-10
-2.81314e-08
-2.8325e-08
-2.85213e-08
-2.87203e-08
-2.89222e-08
-2.91268e-08
-2.93345e-08
-2.9545e-08
-2.97587e-08
-2.99754e-08
-3.01953e-08
-3.04185e-08
-3.0645e-08
-3.08749e-08
-3.11083e-08
-3.13452e-08
-3.15858e-08
-3.18301e-08
-3.20781e-08
-3.23301e-08
-3.25861e-08
-1.16493e-10
)
;

boundaryField
{
    inlet
    {
        type            calculated;
        value           uniform 0;
    }
    outlet2
    {
        type            calculated;
        value           uniform 0;
    }
    outlet1
    {
        type            calculated;
        value           uniform 0;
    }
    wall
    {
        type            calculated;
        value           uniform 0;
    }
    symmetryBottom
    {
        type            symmetry;
    }
    symmetryZ0
    {
        type            symmetry;
    }
    symmetryZ05
    {
        type            symmetry;
    }
}


// ************************************************************************* //
