/*--------------------------------*- C++ -*----------------------------------*\
| =========                 |                                                 |
| \\      /  F ield         | OpenFOAM: The Open Source CFD Toolbox           |
|  \\    /   O peration     | Version:  2412                                  |
|   \\  /    A nd           | Website:  www.openfoam.com                      |
|    \\/     M anipulation  |                                                 |
\*---------------------------------------------------------------------------*/
FoamFile
{
    version     2.0;
    format      ascii;
    arch        "LSB;label=32;scalar=64";
    class       volVectorField;
    location    "8.31363e-07";
    object      rhoU_dof1;
}
// * * * * * * * * * * * * * * * * * * * * * * * * * * * * * * * * * * * * * //

dimensions      [0 0 0 0 0 0 0];

internalField   nonuniform List<vector> 
625
(
(0.0269432 3.54285e-07 2.60537e-06)
(-8.80233e-10 -6.54368e-14 2.25634e-06)
(-1.26183e-05 0.000128555 2.52241e-06)
(0.0269435 -1.14289e-05 2.60544e-06)
(-8.80225e-10 7.09973e-13 2.25641e-06)
(-2.88234e-06 2.92893e-08 2.5034e-06)
(0.0269435 -1.14321e-05 2.6054e-06)
(-8.80235e-10 7.08736e-13 2.25637e-06)
(-6.14279e-06 3.57824e-07 2.50357e-06)
(0.0269435 -1.14321e-05 2.6054e-06)
(-8.80235e-10 7.08732e-13 2.25637e-06)
(-6.13311e-06 3.56852e-07 2.50357e-06)
(0.0269435 -1.14321e-05 2.6054e-06)
(-8.80235e-10 7.08732e-13 2.25637e-06)
(-6.13313e-06 3.56854e-07 2.50357e-06)
(0.0269435 -1.14321e-05 2.6054e-06)
(-8.80235e-10 7.08732e-13 2.25637e-06)
(-6.13313e-06 3.56854e-07 2.50357e-06)
(0.0269435 -1.14321e-05 2.6054e-06)
(-8.80235e-10 7.08732e-13 2.25637e-06)
(-6.13313e-06 3.56854e-07 2.50357e-06)
(0.0269435 -1.14321e-05 2.6054e-06)
(-8.80235e-10 7.08732e-13 2.25637e-06)
(-6.13313e-06 3.56854e-07 2.50357e-06)
(0.0269435 -1.14321e-05 2.6054e-06)
(-8.80235e-10 7.08732e-13 2.25637e-06)
(-6.13313e-06 3.56854e-07 2.50357e-06)
(0.0269435 -1.14321e-05 2.6054e-06)
(-8.80235e-10 7.08732e-13 2.25637e-06)
(-6.13313e-06 3.56854e-07 2.50357e-06)
(0.0269435 -1.14321e-05 2.6054e-06)
(-8.80235e-10 7.08732e-13 2.25637e-06)
(-6.13313e-06 3.56854e-07 2.50357e-06)
(0.0269435 -1.14321e-05 2.6054e-06)
(-8.80235e-10 7.08732e-13 2.25637e-06)
(-6.13313e-06 3.56854e-07 2.50357e-06)
(0.0269435 -1.14321e-05 2.6054e-06)
(-8.80235e-10 7.08732e-13 2.25637e-06)
(-6.13313e-06 3.56854e-07 2.50357e-06)
(0.0269435 -1.14321e-05 2.6054e-06)
(-8.80235e-10 7.08732e-13 2.25637e-06)
(-6.13313e-06 3.56854e-07 2.50357e-06)
(0.0269435 -1.14321e-05 2.6054e-06)
(-8.80235e-10 7.08732e-13 2.25637e-06)
(-6.13313e-06 3.56854e-07 2.50357e-06)
(0.0269435 -1.14321e-05 2.6054e-06)
(-8.80235e-10 7.08732e-13 2.25637e-06)
(-6.13313e-06 3.56854e-07 2.50357e-06)
(0.0269435 -1.14321e-05 2.6054e-06)
(-8.80235e-10 7.08732e-13 2.25637e-06)
(-6.13313e-06 3.56854e-07 2.50357e-06)
(0.0269435 -1.14321e-05 2.6054e-06)
(-8.80235e-10 7.08732e-13 2.25637e-06)
(-6.13313e-06 3.56854e-07 2.50357e-06)
(0.0269435 -1.14321e-05 2.6054e-06)
(-8.80235e-10 7.08732e-13 2.25637e-06)
(-6.13313e-06 3.56854e-07 2.50357e-06)
(0.0269435 -1.14321e-05 2.6054e-06)
(-8.80235e-10 7.08732e-13 2.25637e-06)
(-6.13313e-06 3.56854e-07 2.50357e-06)
(0.0269435 -1.14321e-05 2.6054e-06)
(-8.80235e-10 7.08732e-13 2.25637e-06)
(-6.13313e-06 3.56854e-07 2.50357e-06)
(0.0269435 -1.14321e-05 2.6054e-06)
(-8.80235e-10 7.08732e-13 2.25637e-06)
(-6.13313e-06 3.56854e-07 2.50357e-06)
(0.0269435 -1.14321e-05 2.6054e-06)
(-8.80235e-10 7.08732e-13 2.25637e-06)
(-6.13297e-06 3.56838e-07 2.50356e-06)
(0.0269435 -1.14327e-05 2.6054e-06)
(-8.80236e-10 7.08834e-13 2.25637e-06)
(-6.229e-06 3.66094e-07 2.51217e-06)
(0.0269497 -1.18066e-05 2.60599e-06)
(-8.80584e-10 7.77563e-13 2.25681e-06)
(-4.72493e-07 2.83524e-08 2.25407e-06)
(-6.73532e-05 -3.39879e-09 2.52196e-06)
(-6.78168e-05 -3.45907e-09 2.52324e-06)
(-6.82868e-05 -3.52092e-09 2.52453e-06)
(-6.87634e-05 -3.58438e-09 2.52584e-06)
(-6.92467e-05 -3.6495e-09 2.52718e-06)
(-6.97368e-05 -3.71635e-09 2.52853e-06)
(-7.02339e-05 -3.78499e-09 2.52991e-06)
(-7.07382e-05 -3.85547e-09 2.53131e-06)
(-7.12497e-05 -3.92786e-09 2.53274e-06)
(-7.17687e-05 -4.00222e-09 2.53418e-06)
(-7.22953e-05 -4.07865e-09 2.53565e-06)
(-7.28297e-05 -4.1572e-09 2.53715e-06)
(-7.3372e-05 -4.23794e-09 2.53867e-06)
(-7.39226e-05 -4.32098e-09 2.54022e-06)
(-7.44814e-05 -4.40637e-09 2.54179e-06)
(-7.50487e-05 -4.49422e-09 2.54339e-06)
(-7.56247e-05 -4.58461e-09 2.54502e-06)
(-7.62097e-05 -4.67767e-09 2.54668e-06)
(-7.68037e-05 -4.77344e-09 2.54837e-06)
(-7.74072e-05 -4.8721e-09 2.55009e-06)
(-7.80201e-05 -4.97368e-09 2.55183e-06)
(-0.00469079 0.000175399 2.71268e-06)
(-6.86411e-05 3.95905e-08 2.39941e-06)
(-6.91226e-05 4.01423e-08 2.39969e-06)
(-6.9611e-05 4.07058e-08 2.39998e-06)
(-7.01062e-05 4.12812e-08 2.40027e-06)
(-7.06086e-05 4.18689e-08 2.40056e-06)
(-7.11183e-05 4.24692e-08 2.40086e-06)
(-7.16353e-05 4.30825e-08 2.40117e-06)
(-7.21599e-05 4.37092e-08 2.40148e-06)
(-7.26922e-05 4.43497e-08 2.40179e-06)
(-7.32325e-05 4.50044e-08 2.40211e-06)
(-7.37808e-05 4.56736e-08 2.40243e-06)
(-7.43374e-05 4.63579e-08 2.40276e-06)
(-7.49026e-05 4.70577e-08 2.40309e-06)
(-7.54762e-05 4.77734e-08 2.40343e-06)
(-7.60588e-05 4.85057e-08 2.40377e-06)
(-7.66505e-05 4.92548e-08 2.40412e-06)
(-7.72515e-05 5.00215e-08 2.40447e-06)
(-7.78618e-05 5.08062e-08 2.40483e-06)
(-7.8482e-05 5.16095e-08 2.40519e-06)
(-7.91121e-05 5.2432e-08 2.40556e-06)
(-7.97524e-05 5.32743e-08 2.40594e-06)
(0.000130217 9.70458e-06 2.54516e-06)
(-6.8596e-05 3.96465e-08 2.39811e-06)
(-6.90768e-05 4.01997e-08 2.39839e-06)
(-6.95645e-05 4.07645e-08 2.39867e-06)
(-7.00591e-05 4.13413e-08 2.39896e-06)
(-7.05608e-05 4.19304e-08 2.39925e-06)
(-7.10698e-05 4.25322e-08 2.39954e-06)
(-7.15861e-05 4.31471e-08 2.39983e-06)
(-7.211e-05 4.37753e-08 2.40014e-06)
(-7.26416e-05 4.44174e-08 2.40044e-06)
(-7.31811e-05 4.50738e-08 2.40075e-06)
(-7.37287e-05 4.57448e-08 2.40107e-06)
(-7.42845e-05 4.64309e-08 2.40139e-06)
(-7.48488e-05 4.71325e-08 2.40171e-06)
(-7.54217e-05 4.78502e-08 2.40204e-06)
(-7.60035e-05 4.85844e-08 2.40237e-06)
(-7.65943e-05 4.93356e-08 2.40271e-06)
(-7.71943e-05 5.01044e-08 2.40306e-06)
(-7.78038e-05 5.08912e-08 2.40341e-06)
(-7.84231e-05 5.16968e-08 2.40376e-06)
(-7.90522e-05 5.25217e-08 2.40413e-06)
(-7.96915e-05 5.33664e-08 2.40449e-06)
(7.23649e-05 3.73763e-07 2.54938e-06)
(-6.85511e-05 3.96224e-08 2.39656e-06)
(-6.90314e-05 4.0175e-08 2.39682e-06)
(-6.95184e-05 4.07392e-08 2.39709e-06)
(-7.00124e-05 4.13154e-08 2.39737e-06)
(-7.05134e-05 4.1904e-08 2.39764e-06)
(-7.10217e-05 4.25052e-08 2.39792e-06)
(-7.15373e-05 4.31194e-08 2.39821e-06)
(-7.20605e-05 4.3747e-08 2.3985e-06)
(-7.25914e-05 4.43885e-08 2.39879e-06)
(-7.31301e-05 4.50441e-08 2.39909e-06)
(-7.3677e-05 4.57144e-08 2.39939e-06)
(-7.4232e-05 4.63998e-08 2.3997e-06)
(-7.47955e-05 4.71007e-08 2.40001e-06)
(-7.53676e-05 4.78176e-08 2.40033e-06)
(-7.59485e-05 4.8551e-08 2.40065e-06)
(-7.65385e-05 4.93014e-08 2.40097e-06)
(-7.71376e-05 5.00693e-08 2.40131e-06)
(-7.77463e-05 5.08553e-08 2.40164e-06)
(-7.83646e-05 5.166e-08 2.40198e-06)
(-7.89928e-05 5.24839e-08 2.40233e-06)
(-7.96312e-05 5.33277e-08 2.40268e-06)
(7.29192e-05 4.84482e-07 2.55102e-06)
(-6.85063e-05 3.9602e-08 2.39501e-06)
(-6.8986e-05 4.01541e-08 2.39526e-06)
(-6.94723e-05 4.0718e-08 2.39552e-06)
(-6.99657e-05 4.12937e-08 2.39578e-06)
(-7.0466e-05 4.18818e-08 2.39605e-06)
(-7.09736e-05 4.24825e-08 2.39632e-06)
(-7.14885e-05 4.30962e-08 2.39659e-06)
(-7.2011e-05 4.37234e-08 2.39687e-06)
(-7.25411e-05 4.43643e-08 2.39715e-06)
(-7.30792e-05 4.50194e-08 2.39743e-06)
(-7.36252e-05 4.56892e-08 2.39772e-06)
(-7.41795e-05 4.6374e-08 2.39802e-06)
(-7.47423e-05 4.70743e-08 2.39832e-06)
(-7.53135e-05 4.77906e-08 2.39862e-06)
(-7.58936e-05 4.85233e-08 2.39893e-06)
(-7.64827e-05 4.92731e-08 2.39924e-06)
(-7.7081e-05 5.00404e-08 2.39956e-06)
(-7.76887e-05 5.08257e-08 2.39988e-06)
(-7.83062e-05 5.16296e-08 2.40021e-06)
(-7.89334e-05 5.24528e-08 2.40054e-06)
(-7.95709e-05 5.32959e-08 2.40088e-06)
(7.34697e-05 4.96418e-07 2.55267e-06)
(-6.84615e-05 3.95816e-08 2.39345e-06)
(-6.89405e-05 4.01333e-08 2.3937e-06)
(-6.94263e-05 4.06967e-08 2.39394e-06)
(-6.99189e-05 4.1272e-08 2.3942e-06)
(-7.04187e-05 4.18596e-08 2.39445e-06)
(-7.09255e-05 4.24599e-08 2.39471e-06)
(-7.14398e-05 4.30731e-08 2.39497e-06)
(-7.19615e-05 4.36997e-08 2.39524e-06)
(-7.2491e-05 4.43402e-08 2.39551e-06)
(-7.30283e-05 4.49947e-08 2.39578e-06)
(-7.35736e-05 4.56639e-08 2.39606e-06)
(-7.41271e-05 4.63482e-08 2.39634e-06)
(-7.4689e-05 4.70479e-08 2.39662e-06)
(-7.52595e-05 4.77636e-08 2.39691e-06)
(-7.58387e-05 4.84957e-08 2.39721e-06)
(-7.6427e-05 4.92448e-08 2.39751e-06)
(-7.70244e-05 5.00114e-08 2.39781e-06)
(-7.76313e-05 5.07961e-08 2.39812e-06)
(-7.82478e-05 5.15993e-08 2.39844e-06)
(-7.88742e-05 5.24218e-08 2.39875e-06)
(-7.95106e-05 5.32641e-08 2.39908e-06)
(7.40323e-05 5.08926e-07 2.55433e-06)
(-6.84168e-05 3.95612e-08 2.3919e-06)
(-6.88952e-05 4.01125e-08 2.39214e-06)
(-6.93803e-05 4.06755e-08 2.39237e-06)
(-6.98723e-05 4.12503e-08 2.39261e-06)
(-7.03713e-05 4.18375e-08 2.39286e-06)
(-7.08775e-05 4.24372e-08 2.3931e-06)
(-7.13911e-05 4.305e-08 2.39335e-06)
(-7.19121e-05 4.36761e-08 2.39361e-06)
(-7.24408e-05 4.4316e-08 2.39386e-06)
(-7.29774e-05 4.497e-08 2.39412e-06)
(-7.35219e-05 4.56387e-08 2.39439e-06)
(-7.40747e-05 4.63223e-08 2.39466e-06)
(-7.46358e-05 4.70215e-08 2.39493e-06)
(-7.52054e-05 4.77366e-08 2.39521e-06)
(-7.57839e-05 4.84681e-08 2.39549e-06)
(-7.63713e-05 4.92166e-08 2.39578e-06)
(-7.69678e-05 4.99825e-08 2.39607e-06)
(-7.75738e-05 5.07665e-08 2.39636e-06)
(-7.81894e-05 5.1569e-08 2.39666e-06)
(-7.88148e-05 5.23907e-08 2.39697e-06)
(-7.94504e-05 5.32323e-08 2.39728e-06)
(7.46092e-05 5.21456e-07 2.55598e-06)
(-6.8372e-05 3.95408e-08 2.39035e-06)
(-6.88498e-05 4.00917e-08 2.39057e-06)
(-6.93343e-05 4.06542e-08 2.3908e-06)
(-6.98256e-05 4.12286e-08 2.39103e-06)
(-7.0324e-05 4.18153e-08 2.39126e-06)
(-7.08296e-05 4.24146e-08 2.3915e-06)
(-7.13424e-05 4.30269e-08 2.39173e-06)
(-7.18627e-05 4.36525e-08 2.39198e-06)
(-7.23907e-05 4.42918e-08 2.39222e-06)
(-7.29265e-05 4.49454e-08 2.39247e-06)
(-7.34703e-05 4.56134e-08 2.39272e-06)
(-7.40223e-05 4.62965e-08 2.39298e-06)
(-7.45826e-05 4.69951e-08 2.39324e-06)
(-7.51515e-05 4.77096e-08 2.39351e-06)
(-7.57291e-05 4.84405e-08 2.39377e-06)
(-7.63156e-05 4.91883e-08 2.39405e-06)
(-7.69114e-05 4.99536e-08 2.39432e-06)
(-7.75164e-05 5.07369e-08 2.39461e-06)
(-7.81311e-05 5.15387e-08 2.39489e-06)
(-7.87556e-05 5.23597e-08 2.39518e-06)
(-7.93901e-05 5.32005e-08 2.39548e-06)
(7.52002e-05 5.34008e-07 2.55764e-06)
(-6.83273e-05 3.95204e-08 2.3888e-06)
(-6.88045e-05 4.00709e-08 2.38901e-06)
(-6.92883e-05 4.0633e-08 2.38923e-06)
(-6.9779e-05 4.12069e-08 2.38945e-06)
(-7.02767e-05 4.17932e-08 2.38967e-06)
(-7.07816e-05 4.2392e-08 2.38989e-06)
(-7.12938e-05 4.30038e-08 2.39012e-06)
(-7.18134e-05 4.36289e-08 2.39035e-06)
(-7.23406e-05 4.42677e-08 2.39058e-06)
(-7.28757e-05 4.49207e-08 2.39082e-06)
(-7.34187e-05 4.55882e-08 2.39106e-06)
(-7.39699e-05 4.62707e-08 2.3913e-06)
(-7.45295e-05 4.69687e-08 2.39155e-06)
(-7.50975e-05 4.76826e-08 2.3918e-06)
(-7.56743e-05 4.84129e-08 2.39206e-06)
(-7.626e-05 4.91601e-08 2.39232e-06)
(-7.68548e-05 4.99247e-08 2.39258e-06)
(-7.74591e-05 5.07073e-08 2.39285e-06)
(-7.80728e-05 5.15084e-08 2.39312e-06)
(-7.86964e-05 5.23287e-08 2.3934e-06)
(-7.933e-05 5.31688e-08 2.39368e-06)
(7.58055e-05 5.46583e-07 2.5593e-06)
(-6.82826e-05 3.95023e-08 2.38725e-06)
(-6.87591e-05 4.00523e-08 2.38745e-06)
(-6.92423e-05 4.0614e-08 2.38766e-06)
(-6.97324e-05 4.11875e-08 2.38786e-06)
(-7.02294e-05 4.17733e-08 2.38807e-06)
(-7.07336e-05 4.23716e-08 2.38829e-06)
(-7.1245e-05 4.29829e-08 2.3885e-06)
(-7.1764e-05 4.36076e-08 2.38872e-06)
(-7.22905e-05 4.42459e-08 2.38894e-06)
(-7.28248e-05 4.48983e-08 2.38917e-06)
(-7.33671e-05 4.55653e-08 2.38939e-06)
(-7.39176e-05 4.62473e-08 2.38963e-06)
(-7.44763e-05 4.69447e-08 2.38986e-06)
(-7.50435e-05 4.7658e-08 2.3901e-06)
(-7.56195e-05 4.83877e-08 2.39034e-06)
(-7.62043e-05 4.91343e-08 2.39059e-06)
(-7.67984e-05 4.98983e-08 2.39084e-06)
(-7.74016e-05 5.06802e-08 2.39109e-06)
(-7.80145e-05 5.14807e-08 2.39135e-06)
(-7.86372e-05 5.23003e-08 2.39161e-06)
(-7.92698e-05 5.31396e-08 2.39188e-06)
(7.64119e-05 5.58312e-07 2.56093e-06)
(-6.8237e-05 3.95375e-08 2.38567e-06)
(-6.87129e-05 4.00879e-08 2.38586e-06)
(-6.91954e-05 4.06499e-08 2.38606e-06)
(-6.96848e-05 4.12238e-08 2.38625e-06)
(-7.01812e-05 4.18099e-08 2.38645e-06)
(-7.06847e-05 4.24086e-08 2.38665e-06)
(-7.11954e-05 4.30203e-08 2.38685e-06)
(-7.17137e-05 4.36452e-08 2.38706e-06)
(-7.22394e-05 4.4284e-08 2.38727e-06)
(-7.2773e-05 4.49368e-08 2.38748e-06)
(-7.33145e-05 4.56042e-08 2.3877e-06)
(-7.38642e-05 4.62865e-08 2.38792e-06)
(-7.44221e-05 4.69843e-08 2.38814e-06)
(-7.49885e-05 4.7698e-08 2.38836e-06)
(-7.55636e-05 4.84281e-08 2.38859e-06)
(-7.61476e-05 4.9175e-08 2.38882e-06)
(-7.67407e-05 4.99394e-08 2.38906e-06)
(-7.73431e-05 5.07218e-08 2.3893e-06)
(-7.79551e-05 5.15226e-08 2.38954e-06)
(-7.85768e-05 5.23426e-08 2.38979e-06)
(-7.92085e-05 5.31823e-08 2.39004e-06)
(7.6622e-05 5.44089e-07 2.56125e-06)
(-6.81914e-05 3.95726e-08 2.38409e-06)
(-6.86666e-05 4.01233e-08 2.38427e-06)
(-6.91486e-05 4.06856e-08 2.38445e-06)
(-6.96373e-05 4.12599e-08 2.38464e-06)
(-7.0133e-05 4.18463e-08 2.38482e-06)
(-7.06358e-05 4.24454e-08 2.38501e-06)
(-7.11459e-05 4.30574e-08 2.3852e-06)
(-7.16633e-05 4.36828e-08 2.3854e-06)
(-7.21884e-05 4.43219e-08 2.3856e-06)
(-7.27212e-05 4.49751e-08 2.3858e-06)
(-7.3262e-05 4.56428e-08 2.386e-06)
(-7.38108e-05 4.63256e-08 2.38621e-06)
(-7.43679e-05 4.70237e-08 2.38642e-06)
(-7.49336e-05 4.77378e-08 2.38663e-06)
(-7.55078e-05 4.84683e-08 2.38684e-06)
(-7.60909e-05 4.92157e-08 2.38706e-06)
(-7.66831e-05 4.99804e-08 2.38728e-06)
(-7.72847e-05 5.07632e-08 2.38751e-06)
(-7.78957e-05 5.15645e-08 2.38774e-06)
(-7.85165e-05 5.23849e-08 2.38797e-06)
(-7.91472e-05 5.3225e-08 2.38821e-06)
(7.68092e-05 5.27459e-07 2.56013e-06)
(-6.81458e-05 3.96076e-08 2.38252e-06)
(-6.86205e-05 4.01587e-08 2.38268e-06)
(-6.91017e-05 4.07213e-08 2.38285e-06)
(-6.95898e-05 4.12959e-08 2.38303e-06)
(-7.00848e-05 4.18827e-08 2.3832e-06)
(-7.05869e-05 4.24822e-08 2.38338e-06)
(-7.10963e-05 4.30946e-08 2.38356e-06)
(-7.1613e-05 4.37203e-08 2.38374e-06)
(-7.21373e-05 4.43597e-08 2.38393e-06)
(-7.26695e-05 4.50133e-08 2.38411e-06)
(-7.32094e-05 4.56814e-08 2.3843e-06)
(-7.37574e-05 4.63646e-08 2.3845e-06)
(-7.43138e-05 4.70631e-08 2.38469e-06)
(-7.48785e-05 4.77776e-08 2.38489e-06)
(-7.5452e-05 4.85084e-08 2.3851e-06)
(-7.60343e-05 4.92562e-08 2.3853e-06)
(-7.66256e-05 5.00214e-08 2.38551e-06)
(-7.72262e-05 5.08045e-08 2.38572e-06)
(-7.78363e-05 5.16062e-08 2.38594e-06)
(-7.84561e-05 5.2427e-08 2.38616e-06)
(-7.90859e-05 5.32676e-08 2.38638e-06)
(7.70022e-05 5.10365e-07 2.55901e-06)
(-6.81003e-05 3.96426e-08 2.38094e-06)
(-6.85742e-05 4.0194e-08 2.3811e-06)
(-6.90549e-05 4.0757e-08 2.38125e-06)
(-6.95423e-05 4.13319e-08 2.38142e-06)
(-7.00367e-05 4.19191e-08 2.38158e-06)
(-7.05381e-05 4.25189e-08 2.38174e-06)
(-7.10467e-05 4.31316e-08 2.38191e-06)
(-7.15628e-05 4.37577e-08 2.38208e-06)
(-7.20864e-05 4.43975e-08 2.38226e-06)
(-7.26177e-05 4.50515e-08 2.38243e-06)
(-7.31569e-05 4.572e-08 2.38261e-06)
(-7.37042e-05 4.64035e-08 2.38279e-06)
(-7.42597e-05 4.71024e-08 2.38297e-06)
(-7.48236e-05 4.78173e-08 2.38316e-06)
(-7.53962e-05 4.85485e-08 2.38335e-06)
(-7.59777e-05 4.92967e-08 2.38354e-06)
(-7.65681e-05 5.00622e-08 2.38374e-06)
(-7.71678e-05 5.08458e-08 2.38393e-06)
(-7.7777e-05 5.16479e-08 2.38414e-06)
(-7.83959e-05 5.24691e-08 2.38434e-06)
(-7.90246e-05 5.33101e-08 2.38455e-06)
(7.72013e-05 4.92825e-07 2.55788e-06)
(-6.80548e-05 3.96775e-08 2.37936e-06)
(-6.85281e-05 4.02292e-08 2.37951e-06)
(-6.90081e-05 4.07926e-08 2.37966e-06)
(-6.94949e-05 4.13679e-08 2.37981e-06)
(-6.99885e-05 4.19554e-08 2.37996e-06)
(-7.04892e-05 4.25555e-08 2.38011e-06)
(-7.09972e-05 4.31686e-08 2.38027e-06)
(-7.15125e-05 4.37951e-08 2.38043e-06)
(-7.20354e-05 4.44352e-08 2.38059e-06)
(-7.25659e-05 4.50896e-08 2.38075e-06)
(-7.31044e-05 4.57584e-08 2.38092e-06)
(-7.36509e-05 4.64423e-08 2.38108e-06)
(-7.42056e-05 4.71416e-08 2.38125e-06)
(-7.47688e-05 4.78569e-08 2.38143e-06)
(-7.53405e-05 4.85885e-08 2.3816e-06)
(-7.59211e-05 4.9337e-08 2.38178e-06)
(-7.65106e-05 5.0103e-08 2.38196e-06)
(-7.71095e-05 5.0887e-08 2.38215e-06)
(-7.77177e-05 5.16895e-08 2.38233e-06)
(-7.83356e-05 5.25111e-08 2.38252e-06)
(-7.89634e-05 5.33525e-08 2.38272e-06)
(7.74064e-05 4.74841e-07 2.55675e-06)
(-6.80093e-05 3.97123e-08 2.37779e-06)
(-6.8482e-05 4.02644e-08 2.37792e-06)
(-6.89613e-05 4.08281e-08 2.37806e-06)
(-6.94474e-05 4.14037e-08 2.3782e-06)
(-6.99404e-05 4.19916e-08 2.37834e-06)
(-7.04405e-05 4.25921e-08 2.37848e-06)
(-7.09477e-05 4.32055e-08 2.37862e-06)
(-7.14623e-05 4.38323e-08 2.37877e-06)
(-7.19844e-05 4.44729e-08 2.37892e-06)
(-7.25143e-05 4.51276e-08 2.37907e-06)
(-7.30519e-05 4.57968e-08 2.37922e-06)
(-7.35976e-05 4.6481e-08 2.37938e-06)
(-7.41516e-05 4.71808e-08 2.37954e-06)
(-7.47139e-05 4.78964e-08 2.3797e-06)
(-7.52848e-05 4.86284e-08 2.37986e-06)
(-7.58645e-05 4.93773e-08 2.38002e-06)
(-7.64532e-05 5.01437e-08 2.38019e-06)
(-7.70511e-05 5.0928e-08 2.38036e-06)
(-7.76585e-05 5.17309e-08 2.38053e-06)
(-7.82754e-05 5.2553e-08 2.38071e-06)
(-7.89023e-05 5.33948e-08 2.38089e-06)
(7.76174e-05 4.56415e-07 2.55562e-06)
(-6.79638e-05 3.97471e-08 2.37621e-06)
(-6.84359e-05 4.02996e-08 2.37634e-06)
(-6.89146e-05 4.08636e-08 2.37646e-06)
(-6.94e-05 4.14395e-08 2.37659e-06)
(-6.98924e-05 4.20277e-08 2.37672e-06)
(-7.03917e-05 4.26286e-08 2.37685e-06)
(-7.08983e-05 4.32424e-08 2.37698e-06)
(-7.14121e-05 4.38695e-08 2.37711e-06)
(-7.19336e-05 4.45104e-08 2.37725e-06)
(-7.24626e-05 4.51655e-08 2.37739e-06)
(-7.29995e-05 4.58351e-08 2.37753e-06)
(-7.35444e-05 4.65197e-08 2.37767e-06)
(-7.40975e-05 4.72198e-08 2.37782e-06)
(-7.46591e-05 4.79358e-08 2.37797e-06)
(-7.52291e-05 4.86682e-08 2.37811e-06)
(-7.5808e-05 4.94175e-08 2.37827e-06)
(-7.63958e-05 5.01842e-08 2.37842e-06)
(-7.69928e-05 5.0969e-08 2.37858e-06)
(-7.75992e-05 5.17723e-08 2.37874e-06)
(-7.82153e-05 5.25947e-08 2.3789e-06)
(-7.88412e-05 5.34369e-08 2.37906e-06)
(7.78345e-05 4.37548e-07 2.55449e-06)
(-6.79184e-05 3.97818e-08 2.37464e-06)
(-6.83898e-05 4.03346e-08 2.37475e-06)
(-6.88679e-05 4.08989e-08 2.37486e-06)
(-6.93527e-05 4.14752e-08 2.37498e-06)
(-6.98443e-05 4.20638e-08 2.3751e-06)
(-7.0343e-05 4.2665e-08 2.37522e-06)
(-7.08488e-05 4.32791e-08 2.37534e-06)
(-7.1362e-05 4.39066e-08 2.37546e-06)
(-7.18826e-05 4.45479e-08 2.37559e-06)
(-7.2411e-05 4.52033e-08 2.37571e-06)
(-7.29471e-05 4.58733e-08 2.37584e-06)
(-7.34913e-05 4.65583e-08 2.37597e-06)
(-7.40436e-05 4.72587e-08 2.3761e-06)
(-7.46042e-05 4.79751e-08 2.37624e-06)
(-7.51735e-05 4.87078e-08 2.37637e-06)
(-7.57515e-05 4.94575e-08 2.37651e-06)
(-7.63384e-05 5.02247e-08 2.37665e-06)
(-7.69346e-05 5.10098e-08 2.37679e-06)
(-7.75401e-05 5.18135e-08 2.37694e-06)
(-7.81551e-05 5.26363e-08 2.37709e-06)
(-7.87801e-05 5.34789e-08 2.37724e-06)
(7.80575e-05 4.18244e-07 2.55336e-06)
(-6.7873e-05 3.98164e-08 2.37306e-06)
(-6.83438e-05 4.03695e-08 2.37317e-06)
(-6.88212e-05 4.09342e-08 2.37327e-06)
(-6.93053e-05 4.15108e-08 2.37337e-06)
(-6.97963e-05 4.20997e-08 2.37348e-06)
(-7.02943e-05 4.27013e-08 2.37359e-06)
(-7.07994e-05 4.33157e-08 2.3737e-06)
(-7.13119e-05 4.39436e-08 2.37381e-06)
(-7.18318e-05 4.45852e-08 2.37392e-06)
(-7.23594e-05 4.5241e-08 2.37403e-06)
(-7.28948e-05 4.59113e-08 2.37415e-06)
(-7.34381e-05 4.65967e-08 2.37427e-06)
(-7.39896e-05 4.72975e-08 2.37439e-06)
(-7.45495e-05 4.80142e-08 2.37451e-06)
(-7.51179e-05 4.87474e-08 2.37463e-06)
(-7.5695e-05 4.94975e-08 2.37476e-06)
(-7.62811e-05 5.0265e-08 2.37488e-06)
(-7.68763e-05 5.10505e-08 2.37501e-06)
(-7.74809e-05 5.18546e-08 2.37514e-06)
(-7.80951e-05 5.26778e-08 2.37528e-06)
(-7.8719e-05 5.35208e-08 2.37541e-06)
(7.82865e-05 3.98504e-07 2.55223e-06)
(-6.78276e-05 3.9851e-08 2.37149e-06)
(-6.82978e-05 4.04044e-08 2.37158e-06)
(-6.87745e-05 4.09694e-08 2.37168e-06)
(-6.9258e-05 4.15463e-08 2.37177e-06)
(-6.97483e-05 4.21356e-08 2.37186e-06)
(-7.02456e-05 4.27374e-08 2.37196e-06)
(-7.07501e-05 4.33523e-08 2.37206e-06)
(-7.12618e-05 4.39805e-08 2.37216e-06)
(-7.1781e-05 4.46224e-08 2.37226e-06)
(-7.23078e-05 4.52786e-08 2.37236e-06)
(-7.28424e-05 4.59493e-08 2.37246e-06)
(-7.3385e-05 4.6635e-08 2.37257e-06)
(-7.39357e-05 4.73362e-08 2.37267e-06)
(-7.44947e-05 4.80533e-08 2.37278e-06)
(-7.50623e-05 4.87868e-08 2.37289e-06)
(-7.56386e-05 4.95373e-08 2.373e-06)
(-7.62238e-05 5.03052e-08 2.37312e-06)
(-7.68182e-05 5.10911e-08 2.37323e-06)
(-7.74218e-05 5.18955e-08 2.37335e-06)
(-7.8035e-05 5.27191e-08 2.37347e-06)
(-7.86581e-05 5.35625e-08 2.37359e-06)
(7.85214e-05 3.7833e-07 2.55109e-06)
(-6.77822e-05 3.98854e-08 2.36992e-06)
(-6.82518e-05 4.04391e-08 2.37e-06)
(-6.87279e-05 4.10045e-08 2.37008e-06)
(-6.92107e-05 4.15818e-08 2.37016e-06)
(-6.97003e-05 4.21713e-08 2.37025e-06)
(-7.0197e-05 4.27735e-08 2.37033e-06)
(-7.07007e-05 4.33887e-08 2.37042e-06)
(-7.12117e-05 4.40173e-08 2.3705e-06)
(-7.17302e-05 4.46596e-08 2.37059e-06)
(-7.22562e-05 4.5316e-08 2.37068e-06)
(-7.27901e-05 4.59871e-08 2.37077e-06)
(-7.33319e-05 4.66732e-08 2.37087e-06)
(-7.38818e-05 4.73747e-08 2.37096e-06)
(-7.44401e-05 4.80922e-08 2.37105e-06)
(-7.50068e-05 4.88261e-08 2.37115e-06)
(-7.55822e-05 4.95769e-08 2.37125e-06)
(-7.61666e-05 5.03452e-08 2.37135e-06)
(-7.67599e-05 5.11315e-08 2.37145e-06)
(-7.73627e-05 5.19363e-08 2.37155e-06)
(-7.7975e-05 5.27603e-08 2.37166e-06)
(-7.8597e-05 5.36041e-08 2.37176e-06)
(7.87622e-05 3.57726e-07 2.54996e-06)
(-6.77369e-05 3.99197e-08 2.36835e-06)
(-6.82058e-05 4.04738e-08 2.36842e-06)
(-6.86813e-05 4.10394e-08 2.36849e-06)
(-6.91634e-05 4.1617e-08 2.36856e-06)
(-6.96524e-05 4.22069e-08 2.36863e-06)
(-7.01483e-05 4.28095e-08 2.36871e-06)
(-7.06514e-05 4.3425e-08 2.36878e-06)
(-7.11617e-05 4.40539e-08 2.36885e-06)
(-7.16794e-05 4.46965e-08 2.36893e-06)
(-7.22048e-05 4.53534e-08 2.36901e-06)
(-7.27378e-05 4.60248e-08 2.36909e-06)
(-7.32788e-05 4.67112e-08 2.36917e-06)
(-7.3828e-05 4.74131e-08 2.36925e-06)
(-7.43854e-05 4.81309e-08 2.36933e-06)
(-7.49513e-05 4.88652e-08 2.36941e-06)
(-7.55259e-05 4.96164e-08 2.3695e-06)
(-7.61093e-05 5.0385e-08 2.36958e-06)
(-7.67018e-05 5.11717e-08 2.36967e-06)
(-7.73037e-05 5.19769e-08 2.36976e-06)
(-7.7915e-05 5.28013e-08 2.36985e-06)
(-7.85361e-05 5.36455e-08 2.36994e-06)
(7.90089e-05 3.36693e-07 2.54882e-06)
(-6.76916e-05 3.99539e-08 2.36678e-06)
(-6.81598e-05 4.05083e-08 2.36684e-06)
(-6.86347e-05 4.10743e-08 2.3669e-06)
(-6.91162e-05 4.16522e-08 2.36696e-06)
(-6.96045e-05 4.22424e-08 2.36702e-06)
(-7.00997e-05 4.28453e-08 2.36708e-06)
(-7.06021e-05 4.34611e-08 2.36714e-06)
(-7.11117e-05 4.40904e-08 2.36721e-06)
(-7.16287e-05 4.47334e-08 2.36727e-06)
(-7.21532e-05 4.53905e-08 2.36733e-06)
(-7.26856e-05 4.60623e-08 2.3674e-06)
(-7.32258e-05 4.67491e-08 2.36747e-06)
(-7.37741e-05 4.74513e-08 2.36754e-06)
(-7.43308e-05 4.81695e-08 2.36761e-06)
(-7.48958e-05 4.89041e-08 2.36768e-06)
(-7.54695e-05 4.96557e-08 2.36775e-06)
(-7.60521e-05 5.04247e-08 2.36782e-06)
(-7.66438e-05 5.12118e-08 2.36789e-06)
(-7.72446e-05 5.20174e-08 2.36797e-06)
(-7.78551e-05 5.28421e-08 2.36804e-06)
(-7.84752e-05 5.36866e-08 2.36812e-06)
(7.92616e-05 3.15233e-07 2.54768e-06)
(-6.76463e-05 3.99898e-08 2.36521e-06)
(-6.8114e-05 4.05445e-08 2.36526e-06)
(-6.85881e-05 4.11109e-08 2.36531e-06)
(-6.9069e-05 4.16892e-08 2.36536e-06)
(-6.95566e-05 4.22798e-08 2.36541e-06)
(-7.00512e-05 4.2883e-08 2.36546e-06)
(-7.05528e-05 4.34992e-08 2.36551e-06)
(-7.10617e-05 4.41289e-08 2.36556e-06)
(-7.1578e-05 4.47722e-08 2.36561e-06)
(-7.21019e-05 4.54298e-08 2.36566e-06)
(-7.26334e-05 4.6102e-08 2.36572e-06)
(-7.31728e-05 4.67891e-08 2.36577e-06)
(-7.37204e-05 4.74918e-08 2.36583e-06)
(-7.42761e-05 4.82104e-08 2.36588e-06)
(-7.48404e-05 4.89455e-08 2.36594e-06)
(-7.54132e-05 4.96974e-08 2.366e-06)
(-7.5995e-05 5.04669e-08 2.36606e-06)
(-7.65857e-05 5.12543e-08 2.36612e-06)
(-7.71857e-05 5.20604e-08 2.36618e-06)
(-7.77952e-05 5.28856e-08 2.36624e-06)
(-7.84144e-05 5.37305e-08 2.3663e-06)
(7.94992e-05 2.9487e-07 2.54652e-06)
(-6.76153e-05 4.08828e-08 2.36413e-06)
(-6.80825e-05 4.14499e-08 2.36417e-06)
(-6.85563e-05 4.20288e-08 2.36421e-06)
(-6.90366e-05 4.262e-08 2.36425e-06)
(-6.95238e-05 4.32237e-08 2.3643e-06)
(-7.00179e-05 4.38403e-08 2.36434e-06)
(-7.05191e-05 4.44703e-08 2.36438e-06)
(-7.10275e-05 4.51139e-08 2.36442e-06)
(-7.15433e-05 4.57715e-08 2.36447e-06)
(-7.20666e-05 4.64437e-08 2.36451e-06)
(-7.25976e-05 4.71308e-08 2.36456e-06)
(-7.31366e-05 4.78332e-08 2.3646e-06)
(-7.36835e-05 4.85515e-08 2.36465e-06)
(-7.42388e-05 4.92861e-08 2.3647e-06)
(-7.48024e-05 5.00374e-08 2.36475e-06)
(-7.53747e-05 5.08061e-08 2.3648e-06)
(-7.59558e-05 5.15926e-08 2.36484e-06)
(-7.6546e-05 5.23975e-08 2.3649e-06)
(-7.71454e-05 5.32215e-08 2.36495e-06)
(-7.77542e-05 5.4065e-08 2.365e-06)
(-7.83727e-05 5.49287e-08 2.36505e-06)
(8.60707e-05 -9.14287e-08 2.56557e-06)
)
;

boundaryField
{
    inlet
    {
        type            calculated;
        value           uniform (0 0 0);
    }
    outlet2
    {
        type            calculated;
        value           uniform (0 0 0);
    }
    outlet1
    {
        type            calculated;
        value           uniform (0 0 0);
    }
    wall
    {
        type            calculated;
        value           uniform (0 0 0);
    }
    symmetryBottom
    {
        type            symmetry;
    }
    symmetryZ0
    {
        type            symmetry;
    }
    symmetryZ05
    {
        type            symmetry;
    }
}


// ************************************************************************* //
