/*--------------------------------*- C++ -*----------------------------------*\
| =========                 |                                                 |
| \\      /  F ield         | OpenFOAM: The Open Source CFD Toolbox           |
|  \\    /   O peration     | Version:  2412                                  |
|   \\  /    A nd           | Website:  www.openfoam.com                      |
|    \\/     M anipulation  |                                                 |
\*---------------------------------------------------------------------------*/
FoamFile
{
    version     2.0;
    format      ascii;
    arch        "LSB;label=32;scalar=64";
    class       volVectorField;
    location    "8.31363e-07";
    object      rhoU;
}
// * * * * * * * * * * * * * * * * * * * * * * * * * * * * * * * * * * * * * //

dimensions      [0 0 0 0 0 0 0];

internalField   nonuniform List<vector> 
625
(
(0.0749274 -2.02966e-07 -4.71639e-07)
(0.064872 -3.39306e-07 -5.11538e-07)
(0.064872 -3.3995e-07 5.84044e-09)
(0.0749286 -4.76488e-05 -4.71624e-07)
(0.0648731 -4.33913e-05 -5.11525e-07)
(0.0648731 -4.3392e-05 -3.04166e-10)
(0.0749274 -4.75313e-05 -4.71631e-07)
(0.064872 -4.32818e-05 -5.11534e-07)
(0.064872 -4.32825e-05 -2.42609e-10)
(0.0749274 -4.75317e-05 -4.71631e-07)
(0.064872 -4.32822e-05 -5.11533e-07)
(0.064872 -4.32828e-05 -2.42771e-10)
(0.0749274 -4.75317e-05 -4.71631e-07)
(0.064872 -4.32822e-05 -5.11533e-07)
(0.064872 -4.32828e-05 -2.4277e-10)
(0.0749274 -4.75317e-05 -4.71631e-07)
(0.064872 -4.32822e-05 -5.11533e-07)
(0.064872 -4.32828e-05 -2.4277e-10)
(0.0749274 -4.75317e-05 -4.71631e-07)
(0.064872 -4.32822e-05 -5.11533e-07)
(0.064872 -4.32828e-05 -2.4277e-10)
(0.0749274 -4.75317e-05 -4.71631e-07)
(0.064872 -4.32822e-05 -5.11533e-07)
(0.064872 -4.32828e-05 -2.4277e-10)
(0.0749274 -4.75317e-05 -4.71631e-07)
(0.064872 -4.32822e-05 -5.11533e-07)
(0.064872 -4.32828e-05 -2.4277e-10)
(0.0749274 -4.75317e-05 -4.71631e-07)
(0.064872 -4.32822e-05 -5.11533e-07)
(0.064872 -4.32828e-05 -2.4277e-10)
(0.0749274 -4.75317e-05 -4.71631e-07)
(0.064872 -4.32822e-05 -5.11533e-07)
(0.064872 -4.32828e-05 -2.4277e-10)
(0.0749274 -4.75317e-05 -4.71631e-07)
(0.064872 -4.32822e-05 -5.11533e-07)
(0.064872 -4.32828e-05 -2.4277e-10)
(0.0749274 -4.75317e-05 -4.71631e-07)
(0.064872 -4.32822e-05 -5.11533e-07)
(0.064872 -4.32828e-05 -2.4277e-10)
(0.0749274 -4.75317e-05 -4.71631e-07)
(0.064872 -4.32822e-05 -5.11533e-07)
(0.064872 -4.32828e-05 -2.4277e-10)
(0.0749274 -4.75317e-05 -4.71631e-07)
(0.064872 -4.32822e-05 -5.11533e-07)
(0.064872 -4.32828e-05 -2.4277e-10)
(0.0749274 -4.75317e-05 -4.71631e-07)
(0.064872 -4.32822e-05 -5.11533e-07)
(0.064872 -4.32828e-05 -2.4277e-10)
(0.0749274 -4.75317e-05 -4.71631e-07)
(0.064872 -4.32822e-05 -5.11533e-07)
(0.064872 -4.32828e-05 -2.4277e-10)
(0.0749274 -4.75317e-05 -4.71631e-07)
(0.064872 -4.32822e-05 -5.11533e-07)
(0.064872 -4.32828e-05 -2.4277e-10)
(0.0749274 -4.75317e-05 -4.71631e-07)
(0.064872 -4.32822e-05 -5.11533e-07)
(0.064872 -4.32828e-05 -2.4277e-10)
(0.0749274 -4.75317e-05 -4.71631e-07)
(0.064872 -4.32822e-05 -5.11533e-07)
(0.064872 -4.32828e-05 -2.4277e-10)
(0.0749274 -4.75317e-05 -4.71631e-07)
(0.064872 -4.32822e-05 -5.11533e-07)
(0.064872 -4.32828e-05 -2.4277e-10)
(0.0749274 -4.75317e-05 -4.71631e-07)
(0.064872 -4.32822e-05 -5.11533e-07)
(0.064872 -4.32828e-05 -2.42771e-10)
(0.0749274 -4.75317e-05 -4.71631e-07)
(0.064872 -4.32822e-05 -5.11533e-07)
(0.064872 -4.32828e-05 -2.40799e-10)
(0.0749274 -4.75316e-05 -4.71631e-07)
(0.064872 -4.32826e-05 -5.11534e-07)
(0.0648721 -4.32859e-05 -3.41192e-09)
(0.0749278 -4.75567e-05 -4.71837e-07)
(0.0648699 -4.31562e-05 -5.11751e-07)
(0.06487 -4.31595e-05 -5.14047e-07)
(0.0663354 4.13865e-06 -5.61331e-07)
(0.0663344 4.20238e-06 -5.61622e-07)
(0.0663334 4.26755e-06 -5.61918e-07)
(0.0663325 4.33422e-06 -5.62219e-07)
(0.0663315 4.40244e-06 -5.62524e-07)
(0.0663304 4.47224e-06 -5.62834e-07)
(0.0663294 4.54369e-06 -5.63148e-07)
(0.0663284 4.61683e-06 -5.63467e-07)
(0.0663273 4.69171e-06 -5.63792e-07)
(0.0663263 4.76839e-06 -5.64121e-07)
(0.0663252 4.84694e-06 -5.64456e-07)
(0.0663241 4.9274e-06 -5.64796e-07)
(0.066323 5.00984e-06 -5.65141e-07)
(0.0663219 5.09433e-06 -5.65492e-07)
(0.0663208 5.18093e-06 -5.65849e-07)
(0.0663196 5.26972e-06 -5.66212e-07)
(0.0663185 5.36077e-06 -5.66581e-07)
(0.0663173 5.45415e-06 -5.66956e-07)
(0.0663161 5.54995e-06 -5.67338e-07)
(0.0663149 5.64825e-06 -5.67726e-07)
(0.0663137 5.74913e-06 -5.6812e-07)
(0.0663707 5.74865e-06 -8.82376e-09)
(0.067669 -4.30407e-05 -5.29943e-07)
(0.0676772 -4.33244e-05 -5.29998e-07)
(0.0676856 -4.36119e-05 -5.30054e-07)
(0.0676942 -4.39031e-05 -5.30111e-07)
(0.0677028 -4.41982e-05 -5.30169e-07)
(0.0677116 -4.44973e-05 -5.30227e-07)
(0.0677205 -4.48003e-05 -5.30287e-07)
(0.0677295 -4.51075e-05 -5.30347e-07)
(0.0677387 -4.54188e-05 -5.30408e-07)
(0.067748 -4.57344e-05 -5.3047e-07)
(0.0677574 -4.60544e-05 -5.30533e-07)
(0.067767 -4.63787e-05 -5.30597e-07)
(0.0677767 -4.67077e-05 -5.30661e-07)
(0.0677866 -4.70412e-05 -5.30727e-07)
(0.0677967 -4.73794e-05 -5.30794e-07)
(0.0678069 -4.77225e-05 -5.30862e-07)
(0.0678172 -4.80705e-05 -5.30931e-07)
(0.0678277 -4.84235e-05 -5.31001e-07)
(0.0678384 -4.87817e-05 -5.31072e-07)
(0.0678493 -4.9145e-05 -5.31144e-07)
(0.0678603 -4.95138e-05 -5.31217e-07)
(0.0679185 -4.95536e-05 -2.84544e-09)
(0.0676039 -4.52657e-05 -5.29643e-07)
(0.0676116 -4.55831e-05 -5.29696e-07)
(0.0676194 -4.59049e-05 -5.2975e-07)
(0.0676274 -4.62314e-05 -5.29804e-07)
(0.0676354 -4.65625e-05 -5.2986e-07)
(0.0676436 -4.68984e-05 -5.29916e-07)
(0.0676519 -4.72392e-05 -5.29973e-07)
(0.0676603 -4.7585e-05 -5.3003e-07)
(0.0676689 -4.79359e-05 -5.30089e-07)
(0.0676775 -4.8292e-05 -5.30148e-07)
(0.0676863 -4.86534e-05 -5.30209e-07)
(0.0676952 -4.90203e-05 -5.3027e-07)
(0.0677043 -4.93928e-05 -5.30332e-07)
(0.0677135 -4.9771e-05 -5.30395e-07)
(0.0677228 -5.0155e-05 -5.30459e-07)
(0.0677323 -5.0545e-05 -5.30524e-07)
(0.067742 -5.09411e-05 -5.30591e-07)
(0.0677517 -5.13435e-05 -5.30658e-07)
(0.0677617 -5.17522e-05 -5.30726e-07)
(0.0677718 -5.21676e-05 -5.30795e-07)
(0.067782 -5.25897e-05 -5.30865e-07)
(0.0678402 -5.26309e-05 -2.18627e-09)
(0.0675533 -4.52179e-05 -5.29357e-07)
(0.0675606 -4.55344e-05 -5.29408e-07)
(0.0675681 -4.58554e-05 -5.2946e-07)
(0.0675757 -4.6181e-05 -5.29512e-07)
(0.0675834 -4.65113e-05 -5.29565e-07)
(0.0675912 -4.68463e-05 -5.29619e-07)
(0.0675991 -4.71861e-05 -5.29674e-07)
(0.0676071 -4.75309e-05 -5.2973e-07)
(0.0676153 -4.78808e-05 -5.29786e-07)
(0.0676235 -4.82359e-05 -5.29843e-07)
(0.0676319 -4.85963e-05 -5.29901e-07)
(0.0676404 -4.89621e-05 -5.2996e-07)
(0.0676491 -4.93335e-05 -5.3002e-07)
(0.0676579 -4.97105e-05 -5.30081e-07)
(0.0676668 -5.00934e-05 -5.30143e-07)
(0.0676758 -5.04822e-05 -5.30205e-07)
(0.067685 -5.0877e-05 -5.30269e-07)
(0.0676943 -5.12781e-05 -5.30333e-07)
(0.0677038 -5.16856e-05 -5.30399e-07)
(0.0677134 -5.20996e-05 -5.30466e-07)
(0.0677232 -5.25203e-05 -5.30533e-07)
(0.0677814 -5.25614e-05 -2.09426e-09)
(0.0675027 -4.51908e-05 -5.29071e-07)
(0.0675097 -4.55069e-05 -5.2912e-07)
(0.0675168 -4.58276e-05 -5.2917e-07)
(0.067524 -4.61528e-05 -5.2922e-07)
(0.0675313 -4.64826e-05 -5.29271e-07)
(0.0675388 -4.68172e-05 -5.29323e-07)
(0.0675463 -4.71566e-05 -5.29376e-07)
(0.0675539 -4.7501e-05 -5.29429e-07)
(0.0675617 -4.78505e-05 -5.29483e-07)
(0.0675696 -4.82051e-05 -5.29538e-07)
(0.0675776 -4.85651e-05 -5.29594e-07)
(0.0675857 -4.89304e-05 -5.29651e-07)
(0.0675939 -4.93013e-05 -5.29708e-07)
(0.0676022 -4.96779e-05 -5.29767e-07)
(0.0676107 -5.00602e-05 -5.29826e-07)
(0.0676193 -5.04485e-05 -5.29886e-07)
(0.0676281 -5.08428e-05 -5.29947e-07)
(0.067637 -5.12434e-05 -5.30009e-07)
(0.067646 -5.16503e-05 -5.30072e-07)
(0.0676552 -5.20638e-05 -5.30136e-07)
(0.0676645 -5.24839e-05 -5.30201e-07)
(0.0677225 -5.25248e-05 -2.00146e-09)
(0.0674521 -4.51636e-05 -5.28785e-07)
(0.0674588 -4.54794e-05 -5.28832e-07)
(0.0674655 -4.57996e-05 -5.2888e-07)
(0.0674724 -4.61244e-05 -5.28928e-07)
(0.0674793 -4.64539e-05 -5.28977e-07)
(0.0674864 -4.6788e-05 -5.29027e-07)
(0.0674935 -4.7127e-05 -5.29077e-07)
(0.0675008 -4.7471e-05 -5.29129e-07)
(0.0675082 -4.782e-05 -5.29181e-07)
(0.0675156 -4.81742e-05 -5.29233e-07)
(0.0675232 -4.85337e-05 -5.29287e-07)
(0.0675309 -4.88986e-05 -5.29341e-07)
(0.0675387 -4.9269e-05 -5.29396e-07)
(0.0675467 -4.96451e-05 -5.29452e-07)
(0.0675547 -5.00269e-05 -5.29509e-07)
(0.0675629 -5.04147e-05 -5.29567e-07)
(0.0675712 -5.08085e-05 -5.29625e-07)
(0.0675796 -5.12085e-05 -5.29685e-07)
(0.0675882 -5.16149e-05 -5.29745e-07)
(0.0675969 -5.20278e-05 -5.29807e-07)
(0.0676058 -5.24473e-05 -5.29869e-07)
(0.0676638 -5.24881e-05 -1.9086e-09)
(0.0674016 -4.51364e-05 -5.28499e-07)
(0.0674079 -4.54518e-05 -5.28544e-07)
(0.0674143 -4.57717e-05 -5.2859e-07)
(0.0674208 -4.60961e-05 -5.28636e-07)
(0.0674274 -4.64251e-05 -5.28683e-07)
(0.067434 -4.67589e-05 -5.28731e-07)
(0.0674408 -4.70975e-05 -5.28779e-07)
(0.0674477 -4.7441e-05 -5.28828e-07)
(0.0674547 -4.77896e-05 -5.28878e-07)
(0.0674617 -4.81433e-05 -5.28928e-07)
(0.0674689 -4.85024e-05 -5.2898e-07)
(0.0674762 -4.88668e-05 -5.29032e-07)
(0.0674836 -4.92367e-05 -5.29085e-07)
(0.0674911 -4.96123e-05 -5.29138e-07)
(0.0674987 -4.99936e-05 -5.29193e-07)
(0.0675065 -5.03809e-05 -5.29248e-07)
(0.0675144 -5.07742e-05 -5.29304e-07)
(0.0675223 -5.11736e-05 -5.29361e-07)
(0.0675305 -5.15795e-05 -5.29419e-07)
(0.0675387 -5.19918e-05 -5.29478e-07)
(0.0675471 -5.24107e-05 -5.29537e-07)
(0.0676051 -5.24514e-05 -1.81569e-09)
(0.0673511 -4.51093e-05 -5.28213e-07)
(0.067357 -4.54243e-05 -5.28256e-07)
(0.0673631 -4.57438e-05 -5.283e-07)
(0.0673692 -4.60678e-05 -5.28344e-07)
(0.0673754 -4.63964e-05 -5.28389e-07)
(0.0673817 -4.67298e-05 -5.28435e-07)
(0.0673881 -4.70679e-05 -5.28481e-07)
(0.0673946 -4.7411e-05 -5.28528e-07)
(0.0674012 -4.77592e-05 -5.28575e-07)
(0.0674079 -4.81125e-05 -5.28624e-07)
(0.0674147 -4.8471e-05 -5.28673e-07)
(0.0674215 -4.8835e-05 -5.28722e-07)
(0.0674285 -4.92044e-05 -5.28773e-07)
(0.0674356 -4.95795e-05 -5.28824e-07)
(0.0674428 -4.99603e-05 -5.28876e-07)
(0.0674501 -5.03471e-05 -5.28929e-07)
(0.0674576 -5.07398e-05 -5.28983e-07)
(0.0674651 -5.11388e-05 -5.29037e-07)
(0.0674728 -5.15441e-05 -5.29092e-07)
(0.0674805 -5.19558e-05 -5.29149e-07)
(0.0674884 -5.23742e-05 -5.29206e-07)
(0.0675464 -5.24148e-05 -1.72274e-09)
(0.0673006 -4.50821e-05 -5.27928e-07)
(0.0673062 -4.53968e-05 -5.27969e-07)
(0.0673119 -4.57159e-05 -5.2801e-07)
(0.0673177 -4.60395e-05 -5.28053e-07)
(0.0673235 -4.63677e-05 -5.28096e-07)
(0.0673294 -4.67006e-05 -5.28139e-07)
(0.0673355 -4.70384e-05 -5.28183e-07)
(0.0673416 -4.73811e-05 -5.28228e-07)
(0.0673478 -4.77288e-05 -5.28273e-07)
(0.067354 -4.80816e-05 -5.28319e-07)
(0.0673604 -4.84397e-05 -5.28366e-07)
(0.0673669 -4.88032e-05 -5.28413e-07)
(0.0673735 -4.91721e-05 -5.28461e-07)
(0.0673801 -4.95467e-05 -5.2851e-07)
(0.0673869 -4.99271e-05 -5.2856e-07)
(0.0673938 -5.03133e-05 -5.2861e-07)
(0.0674008 -5.07055e-05 -5.28661e-07)
(0.0674079 -5.1104e-05 -5.28713e-07)
(0.0674151 -5.15087e-05 -5.28766e-07)
(0.0674224 -5.19199e-05 -5.2882e-07)
(0.0674299 -5.23376e-05 -5.28874e-07)
(0.0674878 -5.23781e-05 -1.62979e-09)
(0.0672502 -4.50547e-05 -5.27642e-07)
(0.0672554 -4.5369e-05 -5.27681e-07)
(0.0672608 -4.56877e-05 -5.27721e-07)
(0.0672662 -4.60109e-05 -5.27761e-07)
(0.0672716 -4.63387e-05 -5.27802e-07)
(0.0672772 -4.66713e-05 -5.27843e-07)
(0.0672828 -4.70086e-05 -5.27885e-07)
(0.0672886 -4.73508e-05 -5.27928e-07)
(0.0672944 -4.76981e-05 -5.27971e-07)
(0.0673003 -4.80505e-05 -5.28015e-07)
(0.0673062 -4.84081e-05 -5.28059e-07)
(0.0673123 -4.87711e-05 -5.28104e-07)
(0.0673185 -4.91396e-05 -5.2815e-07)
(0.0673247 -4.95137e-05 -5.28196e-07)
(0.0673311 -4.98936e-05 -5.28244e-07)
(0.0673375 -5.02793e-05 -5.28292e-07)
(0.0673441 -5.0671e-05 -5.2834e-07)
(0.0673507 -5.10689e-05 -5.2839e-07)
(0.0673575 -5.1473e-05 -5.2844e-07)
(0.0673643 -5.18836e-05 -5.28491e-07)
(0.0673713 -5.23009e-05 -5.28543e-07)
(0.0674292 -5.23412e-05 -1.52547e-09)
(0.0671999 -4.50203e-05 -5.27342e-07)
(0.0672048 -4.53342e-05 -5.27379e-07)
(0.0672098 -4.56524e-05 -5.27417e-07)
(0.0672148 -4.59752e-05 -5.27455e-07)
(0.0672199 -4.63025e-05 -5.27493e-07)
(0.0672251 -4.66346e-05 -5.27532e-07)
(0.0672304 -4.69715e-05 -5.27572e-07)
(0.0672357 -4.73132e-05 -5.27612e-07)
(0.0672411 -4.766e-05 -5.27653e-07)
(0.0672466 -4.80119e-05 -5.27695e-07)
(0.0672522 -4.8369e-05 -5.27737e-07)
(0.0672579 -4.87315e-05 -5.27779e-07)
(0.0672636 -4.90994e-05 -5.27823e-07)
(0.0672695 -4.94729e-05 -5.27867e-07)
(0.0672754 -4.98522e-05 -5.27912e-07)
(0.0672814 -5.02373e-05 -5.27957e-07)
(0.0672875 -5.06285e-05 -5.28003e-07)
(0.0672937 -5.10257e-05 -5.2805e-07)
(0.0673 -5.14293e-05 -5.28097e-07)
(0.0673064 -5.18393e-05 -5.28146e-07)
(0.0673129 -5.22558e-05 -5.28195e-07)
(0.0673707 -5.22956e-05 -9.93543e-10)
(0.0671496 -4.49858e-05 -5.27042e-07)
(0.0671542 -4.52993e-05 -5.27077e-07)
(0.0671588 -4.56171e-05 -5.27112e-07)
(0.0671635 -4.59394e-05 -5.27148e-07)
(0.0671682 -4.62663e-05 -5.27185e-07)
(0.0671731 -4.65979e-05 -5.27221e-07)
(0.0671779 -4.69343e-05 -5.27259e-07)
(0.0671829 -4.72755e-05 -5.27297e-07)
(0.0671879 -4.76218e-05 -5.27336e-07)
(0.067193 -4.79732e-05 -5.27375e-07)
(0.0671982 -4.83298e-05 -5.27414e-07)
(0.0672035 -4.86917e-05 -5.27455e-07)
(0.0672088 -4.90591e-05 -5.27496e-07)
(0.0672142 -4.94321e-05 -5.27537e-07)
(0.0672197 -4.98108e-05 -5.27579e-07)
(0.0672253 -5.01954e-05 -5.27622e-07)
(0.067231 -5.05859e-05 -5.27666e-07)
(0.0672368 -5.09826e-05 -5.2771e-07)
(0.0672426 -5.13855e-05 -5.27755e-07)
(0.0672486 -5.17949e-05 -5.278e-07)
(0.0672546 -5.22108e-05 -5.27846e-07)
(0.0673124 -5.22506e-05 -9.41048e-10)
(0.0670994 -4.49513e-05 -5.26742e-07)
(0.0671036 -4.52643e-05 -5.26775e-07)
(0.0671079 -4.55817e-05 -5.26808e-07)
(0.0671122 -4.59035e-05 -5.26842e-07)
(0.0671166 -4.623e-05 -5.26876e-07)
(0.067121 -4.65611e-05 -5.26911e-07)
(0.0671255 -4.6897e-05 -5.26946e-07)
(0.0671301 -4.72378e-05 -5.26982e-07)
(0.0671348 -4.75836e-05 -5.27018e-07)
(0.0671395 -4.79344e-05 -5.27055e-07)
(0.0671443 -4.82905e-05 -5.27092e-07)
(0.0671491 -4.86519e-05 -5.2713e-07)
(0.067154 -4.90188e-05 -5.27168e-07)
(0.067159 -4.93912e-05 -5.27207e-07)
(0.0671641 -4.97694e-05 -5.27247e-07)
(0.0671693 -5.01534e-05 -5.27287e-07)
(0.0671745 -5.05433e-05 -5.27328e-07)
(0.0671798 -5.09394e-05 -5.2737e-07)
(0.0671852 -5.13417e-05 -5.27412e-07)
(0.0671907 -5.17504e-05 -5.27455e-07)
(0.0671963 -5.21657e-05 -5.27498e-07)
(0.067254 -5.22055e-05 -8.91076e-10)
(0.0670492 -4.49166e-05 -5.26442e-07)
(0.0670531 -4.52292e-05 -5.26473e-07)
(0.067057 -4.55461e-05 -5.26504e-07)
(0.0670609 -4.58676e-05 -5.26536e-07)
(0.067065 -4.61936e-05 -5.26568e-07)
(0.067069 -4.65242e-05 -5.266e-07)
(0.0670732 -4.68596e-05 -5.26633e-07)
(0.0670774 -4.71999e-05 -5.26667e-07)
(0.0670816 -4.75452e-05 -5.26701e-07)
(0.067086 -4.78956e-05 -5.26735e-07)
(0.0670903 -4.82511e-05 -5.2677e-07)
(0.0670948 -4.8612e-05 -5.26805e-07)
(0.0670993 -4.89783e-05 -5.26841e-07)
(0.0671039 -4.93502e-05 -5.26878e-07)
(0.0671085 -4.97278e-05 -5.26915e-07)
(0.0671133 -5.01112e-05 -5.26953e-07)
(0.0671181 -5.05006e-05 -5.26991e-07)
(0.067123 -5.0896e-05 -5.2703e-07)
(0.0671279 -5.12977e-05 -5.27069e-07)
(0.0671329 -5.17058e-05 -5.2711e-07)
(0.0671381 -5.21204e-05 -5.2715e-07)
(0.0671957 -5.21602e-05 -8.41205e-10)
(0.066999 -4.48819e-05 -5.26142e-07)
(0.0670026 -4.5194e-05 -5.26171e-07)
(0.0670061 -4.55105e-05 -5.262e-07)
(0.0670097 -4.58315e-05 -5.26229e-07)
(0.0670134 -4.6157e-05 -5.26259e-07)
(0.0670171 -4.64872e-05 -5.2629e-07)
(0.0670208 -4.68222e-05 -5.2632e-07)
(0.0670247 -4.7162e-05 -5.26352e-07)
(0.0670285 -4.75068e-05 -5.26383e-07)
(0.0670325 -4.78566e-05 -5.26415e-07)
(0.0670365 -4.82117e-05 -5.26448e-07)
(0.0670405 -4.8572e-05 -5.26481e-07)
(0.0670446 -4.89378e-05 -5.26515e-07)
(0.0670488 -4.93091e-05 -5.26549e-07)
(0.067053 -4.96861e-05 -5.26583e-07)
(0.0670573 -5.0069e-05 -5.26618e-07)
(0.0670617 -5.04577e-05 -5.26654e-07)
(0.0670661 -5.08526e-05 -5.2669e-07)
(0.0670706 -5.12536e-05 -5.26727e-07)
(0.0670752 -5.16611e-05 -5.26765e-07)
(0.0670799 -5.20751e-05 -5.26803e-07)
(0.0671375 -5.21148e-05 -7.91434e-10)
(0.0669489 -4.48471e-05 -5.25843e-07)
(0.0669521 -4.51588e-05 -5.25869e-07)
(0.0669553 -4.54749e-05 -5.25896e-07)
(0.0669585 -4.57954e-05 -5.25924e-07)
(0.0669618 -4.61204e-05 -5.25951e-07)
(0.0669652 -4.64502e-05 -5.25979e-07)
(0.0669686 -4.67846e-05 -5.26008e-07)
(0.066972 -4.71239e-05 -5.26037e-07)
(0.0669755 -4.74682e-05 -5.26066e-07)
(0.066979 -4.78176e-05 -5.26096e-07)
(0.0669826 -4.81721e-05 -5.26126e-07)
(0.0669863 -4.85319e-05 -5.26157e-07)
(0.06699 -4.88971e-05 -5.26188e-07)
(0.0669937 -4.92679e-05 -5.2622e-07)
(0.0669975 -4.96444e-05 -5.26252e-07)
(0.0670014 -5.00266e-05 -5.26284e-07)
(0.0670053 -5.04148e-05 -5.26317e-07)
(0.0670093 -5.0809e-05 -5.26351e-07)
(0.0670134 -5.12095e-05 -5.26385e-07)
(0.0670175 -5.16163e-05 -5.2642e-07)
(0.0670217 -5.20296e-05 -5.26455e-07)
(0.0670793 -5.20693e-05 -7.41763e-10)
(0.0668988 -4.48122e-05 -5.25543e-07)
(0.0669016 -4.51235e-05 -5.25568e-07)
(0.0669045 -4.54391e-05 -5.25592e-07)
(0.0669074 -4.57591e-05 -5.25618e-07)
(0.0669103 -4.60838e-05 -5.25643e-07)
(0.0669133 -4.6413e-05 -5.25669e-07)
(0.0669163 -4.6747e-05 -5.25695e-07)
(0.0669194 -4.70858e-05 -5.25722e-07)
(0.0669225 -4.74296e-05 -5.25749e-07)
(0.0669256 -4.77784e-05 -5.25777e-07)
(0.0669288 -4.81324e-05 -5.25804e-07)
(0.066932 -4.84917e-05 -5.25833e-07)
(0.0669353 -4.88564e-05 -5.25861e-07)
(0.0669387 -4.92266e-05 -5.2589e-07)
(0.0669421 -4.96025e-05 -5.2592e-07)
(0.0669455 -4.99841e-05 -5.2595e-07)
(0.066949 -5.03717e-05 -5.25981e-07)
(0.0669526 -5.07653e-05 -5.26012e-07)
(0.0669562 -5.11652e-05 -5.26043e-07)
(0.0669599 -5.15713e-05 -5.26075e-07)
(0.0669636 -5.1984e-05 -5.26107e-07)
(0.0670211 -5.20238e-05 -6.92191e-10)
(0.0668488 -4.47772e-05 -5.25244e-07)
(0.0668512 -4.5088e-05 -5.25266e-07)
(0.0668537 -4.54032e-05 -5.25289e-07)
(0.0668563 -4.57228e-05 -5.25312e-07)
(0.0668588 -4.6047e-05 -5.25335e-07)
(0.0668614 -4.63758e-05 -5.25359e-07)
(0.0668641 -4.67093e-05 -5.25383e-07)
(0.0668667 -4.70476e-05 -5.25407e-07)
(0.0668695 -4.73909e-05 -5.25432e-07)
(0.0668722 -4.77392e-05 -5.25457e-07)
(0.066875 -4.80927e-05 -5.25483e-07)
(0.0668779 -4.84514e-05 -5.25509e-07)
(0.0668808 -4.88155e-05 -5.25535e-07)
(0.0668837 -4.91852e-05 -5.25562e-07)
(0.0668867 -4.95605e-05 -5.25589e-07)
(0.0668897 -4.99416e-05 -5.25616e-07)
(0.0668928 -5.03285e-05 -5.25644e-07)
(0.0668959 -5.07216e-05 -5.25672e-07)
(0.066899 -5.11208e-05 -5.25701e-07)
(0.0669022 -5.15263e-05 -5.2573e-07)
(0.0669055 -5.19383e-05 -5.2576e-07)
(0.066963 -5.19781e-05 -6.42721e-10)
(0.0667987 -4.47422e-05 -5.24944e-07)
(0.0668008 -4.50525e-05 -5.24965e-07)
(0.066803 -4.53673e-05 -5.24985e-07)
(0.0668052 -4.56864e-05 -5.25006e-07)
(0.0668074 -4.60101e-05 -5.25027e-07)
(0.0668096 -4.63384e-05 -5.25049e-07)
(0.0668119 -4.66714e-05 -5.25071e-07)
(0.0668142 -4.70093e-05 -5.25093e-07)
(0.0668165 -4.7352e-05 -5.25115e-07)
(0.0668189 -4.76998e-05 -5.25138e-07)
(0.0668213 -4.80528e-05 -5.25161e-07)
(0.0668237 -4.8411e-05 -5.25185e-07)
(0.0668262 -4.87746e-05 -5.25209e-07)
(0.0668287 -4.91437e-05 -5.25233e-07)
(0.0668313 -4.95184e-05 -5.25257e-07)
(0.0668339 -4.98989e-05 -5.25282e-07)
(0.0668365 -5.02853e-05 -5.25308e-07)
(0.0668392 -5.06777e-05 -5.25333e-07)
(0.0668419 -5.10763e-05 -5.25359e-07)
(0.0668447 -5.14812e-05 -5.25386e-07)
(0.0668475 -5.18925e-05 -5.25413e-07)
(0.0669049 -5.19323e-05 -5.9335e-10)
(0.0667487 -4.4707e-05 -5.24645e-07)
(0.0667505 -4.5017e-05 -5.24664e-07)
(0.0667523 -4.53312e-05 -5.24682e-07)
(0.0667541 -4.56499e-05 -5.24701e-07)
(0.066756 -4.59732e-05 -5.2472e-07)
(0.0667578 -4.6301e-05 -5.24739e-07)
(0.0667597 -4.66335e-05 -5.24759e-07)
(0.0667617 -4.69709e-05 -5.24779e-07)
(0.0667636 -4.73131e-05 -5.24799e-07)
(0.0667656 -4.76604e-05 -5.24819e-07)
(0.0667676 -4.80128e-05 -5.2484e-07)
(0.0667696 -4.83705e-05 -5.24861e-07)
(0.0667717 -4.87336e-05 -5.24882e-07)
(0.0667738 -4.91021e-05 -5.24904e-07)
(0.066776 -4.94763e-05 -5.24926e-07)
(0.0667781 -4.98561e-05 -5.24949e-07)
(0.0667803 -5.02419e-05 -5.24971e-07)
(0.0667826 -5.06337e-05 -5.24994e-07)
(0.0667848 -5.10317e-05 -5.25018e-07)
(0.0667872 -5.14359e-05 -5.25042e-07)
(0.0667895 -5.18466e-05 -5.25066e-07)
(0.0668469 -5.18863e-05 -5.44081e-10)
(0.0666988 -4.46718e-05 -5.24346e-07)
(0.0667002 -4.49813e-05 -5.24362e-07)
(0.0667016 -4.52951e-05 -5.24379e-07)
(0.0667031 -4.56134e-05 -5.24395e-07)
(0.0667046 -4.59361e-05 -5.24412e-07)
(0.0667061 -4.62635e-05 -5.24429e-07)
(0.0667076 -4.65955e-05 -5.24447e-07)
(0.0667092 -4.69324e-05 -5.24464e-07)
(0.0667107 -4.72741e-05 -5.24482e-07)
(0.0667123 -4.76209e-05 -5.245e-07)
(0.0667139 -4.79728e-05 -5.24519e-07)
(0.0667156 -4.83299e-05 -5.24537e-07)
(0.0667173 -4.86924e-05 -5.24556e-07)
(0.0667189 -4.90604e-05 -5.24576e-07)
(0.0667207 -4.9434e-05 -5.24595e-07)
(0.0667224 -4.98133e-05 -5.24615e-07)
(0.0667242 -5.01985e-05 -5.24635e-07)
(0.066726 -5.05896e-05 -5.24656e-07)
(0.0667278 -5.0987e-05 -5.24677e-07)
(0.0667297 -5.13906e-05 -5.24698e-07)
(0.0667316 -5.18006e-05 -5.24719e-07)
(0.0667889 -5.18403e-05 -4.94912e-10)
(0.0666488 -4.46365e-05 -5.24047e-07)
(0.0666499 -4.49456e-05 -5.24061e-07)
(0.066651 -4.52589e-05 -5.24076e-07)
(0.0666521 -4.55767e-05 -5.2409e-07)
(0.0666532 -4.5899e-05 -5.24105e-07)
(0.0666544 -4.62259e-05 -5.2412e-07)
(0.0666555 -4.65575e-05 -5.24135e-07)
(0.0666567 -4.68938e-05 -5.2415e-07)
(0.0666579 -4.72351e-05 -5.24166e-07)
(0.0666591 -4.75813e-05 -5.24182e-07)
(0.0666603 -4.79327e-05 -5.24198e-07)
(0.0666616 -4.82893e-05 -5.24214e-07)
(0.0666628 -4.86512e-05 -5.24231e-07)
(0.0666641 -4.90186e-05 -5.24247e-07)
(0.0666654 -4.93916e-05 -5.24264e-07)
(0.0666667 -4.97703e-05 -5.24282e-07)
(0.0666681 -5.01549e-05 -5.24299e-07)
(0.0666694 -5.05455e-05 -5.24317e-07)
(0.0666708 -5.09422e-05 -5.24335e-07)
(0.0666722 -5.13451e-05 -5.24354e-07)
(0.0666737 -5.17545e-05 -5.24373e-07)
(0.066731 -5.17942e-05 -4.45845e-10)
(0.0665989 -4.46011e-05 -5.23748e-07)
(0.0665997 -4.49097e-05 -5.2376e-07)
(0.0666004 -4.52227e-05 -5.23773e-07)
(0.0666012 -4.554e-05 -5.23785e-07)
(0.0666019 -4.58618e-05 -5.23798e-07)
(0.0666027 -4.61882e-05 -5.2381e-07)
(0.0666035 -4.65193e-05 -5.23823e-07)
(0.0666043 -4.68551e-05 -5.23836e-07)
(0.0666051 -4.71959e-05 -5.2385e-07)
(0.0666059 -4.75416e-05 -5.23863e-07)
(0.0666067 -4.78925e-05 -5.23877e-07)
(0.0666076 -4.82485e-05 -5.23891e-07)
(0.0666084 -4.86099e-05 -5.23905e-07)
(0.0666093 -4.89767e-05 -5.23919e-07)
(0.0666102 -4.93492e-05 -5.23934e-07)
(0.0666111 -4.97273e-05 -5.23949e-07)
(0.066612 -5.01113e-05 -5.23964e-07)
(0.0666129 -5.05012e-05 -5.23979e-07)
(0.0666139 -5.08973e-05 -5.23994e-07)
(0.0666148 -5.12996e-05 -5.2401e-07)
(0.0666158 -5.17083e-05 -5.24026e-07)
(0.0666731 -5.1748e-05 -3.96884e-10)
(0.0665491 -4.4566e-05 -5.2345e-07)
(0.0665495 -4.48742e-05 -5.2346e-07)
(0.0665499 -4.51867e-05 -5.2347e-07)
(0.0665502 -4.55036e-05 -5.2348e-07)
(0.0665507 -4.5825e-05 -5.23491e-07)
(0.0665511 -4.61509e-05 -5.23501e-07)
(0.0665515 -4.64815e-05 -5.23512e-07)
(0.0665519 -4.68168e-05 -5.23523e-07)
(0.0665523 -4.71571e-05 -5.23534e-07)
(0.0665528 -4.75023e-05 -5.23545e-07)
(0.0665532 -4.78526e-05 -5.23556e-07)
(0.0665536 -4.82081e-05 -5.23568e-07)
(0.0665541 -4.8569e-05 -5.23579e-07)
(0.0665546 -4.89352e-05 -5.23591e-07)
(0.066555 -4.93071e-05 -5.23603e-07)
(0.0665555 -4.96846e-05 -5.23616e-07)
(0.066556 -5.0068e-05 -5.23628e-07)
(0.0665565 -5.04573e-05 -5.23641e-07)
(0.066557 -5.08528e-05 -5.23654e-07)
(0.0665575 -5.12545e-05 -5.23667e-07)
(0.066558 -5.16625e-05 -5.2368e-07)
(0.0666152 -5.17022e-05 -3.39804e-10)
(0.0664973 -4.44184e-05 -5.23377e-07)
(0.0664974 -4.47254e-05 -5.23386e-07)
(0.0664974 -4.50367e-05 -5.23396e-07)
(0.0664974 -4.53523e-05 -5.23406e-07)
(0.0664975 -4.56724e-05 -5.23416e-07)
(0.0664975 -4.59971e-05 -5.23426e-07)
(0.0664975 -4.63264e-05 -5.23436e-07)
(0.0664976 -4.66604e-05 -5.23446e-07)
(0.0664976 -4.69993e-05 -5.23457e-07)
(0.0664976 -4.73432e-05 -5.23467e-07)
(0.0664977 -4.76921e-05 -5.23478e-07)
(0.0664977 -4.80462e-05 -5.23489e-07)
(0.0664977 -4.84056e-05 -5.235e-07)
(0.0664978 -4.87704e-05 -5.23512e-07)
(0.0664978 -4.91408e-05 -5.23523e-07)
(0.0664978 -4.95168e-05 -5.23535e-07)
(0.0664979 -4.98987e-05 -5.23546e-07)
(0.0664979 -5.02865e-05 -5.23558e-07)
(0.066498 -5.06803e-05 -5.23571e-07)
(0.066498 -5.10804e-05 -5.23583e-07)
(0.066498 -5.14868e-05 -5.23596e-07)
(0.0665553 -5.15344e-05 -7.03749e-09)
)
;

boundaryField
{
    inlet
    {
        type            calculated;
        value           uniform (0 0 0);
    }
    outlet2
    {
        type            calculated;
        value           uniform (0 0 0);
    }
    outlet1
    {
        type            calculated;
        value           uniform (0 0 0);
    }
    wall
    {
        type            calculated;
        value           uniform (0 0 0);
    }
    symmetryBottom
    {
        type            symmetry;
    }
    symmetryZ0
    {
        type            symmetry;
    }
    symmetryZ05
    {
        type            symmetry;
    }
}


// ************************************************************************* //
