/*--------------------------------*- C++ -*----------------------------------*\
| =========                 |                                                 |
| \\      /  F ield         | OpenFOAM: The Open Source CFD Toolbox           |
|  \\    /   O peration     | Version:  2412                                  |
|   \\  /    A nd           | Website:  www.openfoam.com                      |
|    \\/     M anipulation  |                                                 |
\*---------------------------------------------------------------------------*/
FoamFile
{
    version     2.0;
    format      ascii;
    arch        "LSB;label=32;scalar=64";
    class       volVectorField;
    location    "8.31363e-07";
    object      rhoU_dof3;
}
// * * * * * * * * * * * * * * * * * * * * * * * * * * * * * * * * * * * * * //

dimensions      [0 0 0 0 0 0 0];

internalField   nonuniform List<vector> 
625
(
(0.000477139 6.38725e-09 -0.00053555)
(0.000434432 5.31754e-09 -0.000487548)
(0.000385377 4.14259e-09 9.00269e-12)
(0.000477146 -2.71371e-07 -0.000535566)
(0.000434438 -2.52799e-07 -0.000487564)
(0.000385383 -2.27977e-07 -1.59465e-12)
(0.000477146 -2.7138e-07 -0.000535557)
(0.000434438 -2.52808e-07 -0.000487555)
(0.000385383 -2.27972e-07 -1.83558e-12)
(0.000477146 -2.7138e-07 -0.000535557)
(0.000434438 -2.52808e-07 -0.000487555)
(0.000385383 -2.27972e-07 -1.83534e-12)
(0.000477146 -2.7138e-07 -0.000535557)
(0.000434438 -2.52808e-07 -0.000487555)
(0.000385383 -2.27972e-07 -1.83534e-12)
(0.000477146 -2.7138e-07 -0.000535557)
(0.000434438 -2.52808e-07 -0.000487555)
(0.000385383 -2.27972e-07 -1.83534e-12)
(0.000477146 -2.7138e-07 -0.000535557)
(0.000434438 -2.52808e-07 -0.000487555)
(0.000385383 -2.27972e-07 -1.83534e-12)
(0.000477146 -2.7138e-07 -0.000535557)
(0.000434438 -2.52808e-07 -0.000487555)
(0.000385383 -2.27972e-07 -1.83534e-12)
(0.000477146 -2.7138e-07 -0.000535557)
(0.000434438 -2.52808e-07 -0.000487555)
(0.000385383 -2.27972e-07 -1.83534e-12)
(0.000477146 -2.7138e-07 -0.000535557)
(0.000434438 -2.52808e-07 -0.000487555)
(0.000385383 -2.27972e-07 -1.83534e-12)
(0.000477146 -2.7138e-07 -0.000535557)
(0.000434438 -2.52808e-07 -0.000487555)
(0.000385383 -2.27972e-07 -1.83534e-12)
(0.000477146 -2.7138e-07 -0.000535557)
(0.000434438 -2.52808e-07 -0.000487555)
(0.000385383 -2.27972e-07 -1.83534e-12)
(0.000477146 -2.7138e-07 -0.000535557)
(0.000434438 -2.52808e-07 -0.000487555)
(0.000385383 -2.27972e-07 -1.83534e-12)
(0.000477146 -2.7138e-07 -0.000535557)
(0.000434438 -2.52808e-07 -0.000487555)
(0.000385383 -2.27972e-07 -1.83534e-12)
(0.000477146 -2.7138e-07 -0.000535557)
(0.000434438 -2.52808e-07 -0.000487555)
(0.000385383 -2.27972e-07 -1.83534e-12)
(0.000477146 -2.7138e-07 -0.000535557)
(0.000434438 -2.52808e-07 -0.000487555)
(0.000385383 -2.27972e-07 -1.83534e-12)
(0.000477146 -2.7138e-07 -0.000535557)
(0.000434438 -2.52808e-07 -0.000487555)
(0.000385383 -2.27972e-07 -1.83534e-12)
(0.000477146 -2.7138e-07 -0.000535557)
(0.000434438 -2.52808e-07 -0.000487555)
(0.000385383 -2.27972e-07 -1.83534e-12)
(0.000477146 -2.7138e-07 -0.000535557)
(0.000434438 -2.52808e-07 -0.000487555)
(0.000385383 -2.27972e-07 -1.83534e-12)
(0.000477146 -2.7138e-07 -0.000535557)
(0.000434438 -2.52808e-07 -0.000487555)
(0.000385383 -2.27972e-07 -1.83534e-12)
(0.000477146 -2.7138e-07 -0.000535557)
(0.000434438 -2.52808e-07 -0.000487555)
(0.000385383 -2.27972e-07 -1.83534e-12)
(0.000477146 -2.7138e-07 -0.000535557)
(0.000434438 -2.52808e-07 -0.000487555)
(0.000385383 -2.27972e-07 -1.83553e-12)
(0.000477146 -2.7138e-07 -0.000535557)
(0.000434438 -2.52808e-07 -0.000487555)
(0.000385382 -2.27951e-07 -2.85935e-12)
(0.000477146 -2.71392e-07 -0.000535557)
(0.000434438 -2.5282e-07 -0.000487555)
(0.000384994 -2.04647e-07 -2.27856e-09)
(0.000477262 -2.78367e-07 -0.000535681)
(0.000434536 -2.58691e-07 -0.000487659)
(0.000433958 -2.22634e-07 -0.000487659)
(0.000444159 2.3154e-08 -0.000531787)
(0.000444158 2.33987e-08 -0.000532044)
(0.000444156 2.36481e-08 -0.000532306)
(0.000444154 2.39023e-08 -0.000532572)
(0.000444153 2.41615e-08 -0.000532842)
(0.000444151 2.44259e-08 -0.000533116)
(0.000444149 2.46955e-08 -0.000533395)
(0.000444147 2.49705e-08 -0.000533678)
(0.000444146 2.5251e-08 -0.000533966)
(0.000444144 2.55374e-08 -0.000534258)
(0.000444142 2.58296e-08 -0.000534556)
(0.00044414 2.61278e-08 -0.000534858)
(0.000444138 2.64324e-08 -0.000535166)
(0.000444136 2.67433e-08 -0.000535479)
(0.000444134 2.70609e-08 -0.000535797)
(0.000444132 2.73854e-08 -0.000536121)
(0.00044413 2.77168e-08 -0.00053645)
(0.000444128 2.80556e-08 -0.000536785)
(0.000444126 2.84018e-08 -0.000537126)
(0.000444124 2.87557e-08 -0.000537474)
(0.000444121 2.91177e-08 -0.000537827)
(0.000478257 3.0463e-08 -1.58346e-11)
(0.000452585 -2.57163e-07 -0.000507682)
(0.000452642 -2.58965e-07 -0.000507744)
(0.0004527 -2.60793e-07 -0.000507808)
(0.000452759 -2.62647e-07 -0.000507872)
(0.000452818 -2.64527e-07 -0.000507937)
(0.000452879 -2.66434e-07 -0.000508004)
(0.00045294 -2.68369e-07 -0.000508071)
(0.000453003 -2.70333e-07 -0.000508139)
(0.000453066 -2.72325e-07 -0.000508208)
(0.00045313 -2.74347e-07 -0.000508278)
(0.000453195 -2.76399e-07 -0.000508349)
(0.000453261 -2.78482e-07 -0.000508422)
(0.000453328 -2.80597e-07 -0.000508495)
(0.000453396 -2.82744e-07 -0.000508569)
(0.000453465 -2.84924e-07 -0.000508645)
(0.000453535 -2.87138e-07 -0.000508722)
(0.000453607 -2.89386e-07 -0.000508799)
(0.000453679 -2.9167e-07 -0.000508879)
(0.000453753 -2.93991e-07 -0.000508959)
(0.000453827 -2.96348e-07 -0.000509041)
(0.000453903 -2.98744e-07 -0.000509123)
(0.000488875 -3.26493e-07 -8.98221e-12)
(0.000452293 -2.57331e-07 -0.000507404)
(0.000452348 -2.59136e-07 -0.000507465)
(0.000452404 -2.60967e-07 -0.000507527)
(0.000452461 -2.62824e-07 -0.00050759)
(0.000452518 -2.64708e-07 -0.000507653)
(0.000452576 -2.66619e-07 -0.000507718)
(0.000452636 -2.68557e-07 -0.000507784)
(0.000452696 -2.70524e-07 -0.00050785)
(0.000452757 -2.7252e-07 -0.000507917)
(0.000452818 -2.74546e-07 -0.000507986)
(0.000452881 -2.76602e-07 -0.000508055)
(0.000452945 -2.78689e-07 -0.000508126)
(0.000453009 -2.80808e-07 -0.000508197)
(0.000453075 -2.82959e-07 -0.00050827)
(0.000453142 -2.85143e-07 -0.000508344)
(0.000453209 -2.87362e-07 -0.000508419)
(0.000453278 -2.89615e-07 -0.000508495)
(0.000453348 -2.91904e-07 -0.000508572)
(0.000453419 -2.94229e-07 -0.000508651)
(0.000453491 -2.96592e-07 -0.00050873)
(0.000453564 -2.98992e-07 -0.000508811)
(0.000488502 -3.27056e-07 -8.68669e-12)
(0.000452002 -2.57177e-07 -0.000507077)
(0.000452055 -2.5898e-07 -0.000507136)
(0.000452108 -2.60808e-07 -0.000507196)
(0.000452163 -2.62663e-07 -0.000507256)
(0.000452218 -2.64544e-07 -0.000507317)
(0.000452275 -2.66452e-07 -0.000507379)
(0.000452332 -2.68388e-07 -0.000507443)
(0.000452389 -2.70352e-07 -0.000507506)
(0.000452448 -2.72346e-07 -0.000507571)
(0.000452508 -2.74368e-07 -0.000507637)
(0.000452568 -2.76422e-07 -0.000507704)
(0.000452629 -2.78506e-07 -0.000507772)
(0.000452692 -2.80621e-07 -0.000507841)
(0.000452755 -2.82769e-07 -0.000507911)
(0.000452819 -2.84951e-07 -0.000507982)
(0.000452884 -2.87166e-07 -0.000508054)
(0.00045295 -2.89416e-07 -0.000508127)
(0.000453018 -2.91701e-07 -0.000508201)
(0.000453086 -2.94023e-07 -0.000508277)
(0.000453155 -2.96382e-07 -0.000508354)
(0.000453226 -2.98779e-07 -0.000508431)
(0.000488132 -3.26818e-07 -8.40039e-12)
(0.00045171 -2.57046e-07 -0.000506752)
(0.000451761 -2.58847e-07 -0.000506808)
(0.000451813 -2.60674e-07 -0.000506865)
(0.000451866 -2.62527e-07 -0.000506923)
(0.000451919 -2.64406e-07 -0.000506982)
(0.000451973 -2.66312e-07 -0.000507042)
(0.000452028 -2.68246e-07 -0.000507102)
(0.000452083 -2.70208e-07 -0.000507164)
(0.00045214 -2.72199e-07 -0.000507226)
(0.000452197 -2.7422e-07 -0.00050729)
(0.000452255 -2.76271e-07 -0.000507354)
(0.000452314 -2.78353e-07 -0.000507419)
(0.000452374 -2.80466e-07 -0.000507485)
(0.000452435 -2.82612e-07 -0.000507552)
(0.000452496 -2.84791e-07 -0.000507621)
(0.000452559 -2.87003e-07 -0.00050769)
(0.000452623 -2.89251e-07 -0.00050776)
(0.000452687 -2.91534e-07 -0.000507832)
(0.000452753 -2.93853e-07 -0.000507904)
(0.00045282 -2.96209e-07 -0.000507978)
(0.000452887 -2.98603e-07 -0.000508053)
(0.000487762 -3.26623e-07 -8.09845e-12)
(0.000451419 -2.56916e-07 -0.000506426)
(0.000451468 -2.58715e-07 -0.00050648)
(0.000451518 -2.6054e-07 -0.000506535)
(0.000451569 -2.62391e-07 -0.000506591)
(0.00045162 -2.64268e-07 -0.000506647)
(0.000451672 -2.66172e-07 -0.000506704)
(0.000451724 -2.68104e-07 -0.000506763)
(0.000451777 -2.70064e-07 -0.000506822)
(0.000451832 -2.72053e-07 -0.000506881)
(0.000451887 -2.74072e-07 -0.000506942)
(0.000451942 -2.7612e-07 -0.000507004)
(0.000451999 -2.782e-07 -0.000507066)
(0.000452056 -2.80311e-07 -0.00050713)
(0.000452115 -2.82454e-07 -0.000507194)
(0.000452174 -2.84631e-07 -0.00050726)
(0.000452234 -2.86841e-07 -0.000507326)
(0.000452295 -2.89086e-07 -0.000507394)
(0.000452357 -2.91366e-07 -0.000507462)
(0.00045242 -2.93682e-07 -0.000507532)
(0.000452484 -2.96036e-07 -0.000507603)
(0.000452549 -2.98428e-07 -0.000507675)
(0.000487393 -3.26428e-07 -7.79664e-12)
(0.000451129 -2.56785e-07 -0.0005061)
(0.000451176 -2.58583e-07 -0.000506152)
(0.000451223 -2.60406e-07 -0.000506205)
(0.000451271 -2.62255e-07 -0.000506258)
(0.00045132 -2.6413e-07 -0.000506312)
(0.00045137 -2.66032e-07 -0.000506367)
(0.000451421 -2.67962e-07 -0.000506423)
(0.000451472 -2.6992e-07 -0.000506479)
(0.000451524 -2.71907e-07 -0.000506537)
(0.000451576 -2.73923e-07 -0.000506595)
(0.00045163 -2.7597e-07 -0.000506654)
(0.000451684 -2.78047e-07 -0.000506714)
(0.000451739 -2.80156e-07 -0.000506775)
(0.000451795 -2.82297e-07 -0.000506837)
(0.000451852 -2.84471e-07 -0.000506899)
(0.000451909 -2.86679e-07 -0.000506963)
(0.000451968 -2.88921e-07 -0.000507028)
(0.000452027 -2.91198e-07 -0.000507093)
(0.000452088 -2.93512e-07 -0.00050716)
(0.000452149 -2.95863e-07 -0.000507228)
(0.000452212 -2.98252e-07 -0.000507297)
(0.000487024 -3.26233e-07 -7.49483e-12)
(0.000450838 -2.56655e-07 -0.000505775)
(0.000450883 -2.58451e-07 -0.000505825)
(0.000450928 -2.60272e-07 -0.000505875)
(0.000450975 -2.62119e-07 -0.000505926)
(0.000451021 -2.63992e-07 -0.000505978)
(0.000451069 -2.65892e-07 -0.00050603)
(0.000451117 -2.6782e-07 -0.000506083)
(0.000451166 -2.69776e-07 -0.000506137)
(0.000451216 -2.71761e-07 -0.000506192)
(0.000451266 -2.73775e-07 -0.000506248)
(0.000451317 -2.75819e-07 -0.000506304)
(0.000451369 -2.77894e-07 -0.000506362)
(0.000451422 -2.80001e-07 -0.00050642)
(0.000451475 -2.82139e-07 -0.000506479)
(0.00045153 -2.84311e-07 -0.000506539)
(0.000451585 -2.86516e-07 -0.0005066)
(0.000451641 -2.88756e-07 -0.000506662)
(0.000451698 -2.91031e-07 -0.000506724)
(0.000451756 -2.93342e-07 -0.000506788)
(0.000451814 -2.9569e-07 -0.000506853)
(0.000451874 -2.98076e-07 -0.000506919)
(0.000486655 -3.26038e-07 -7.19305e-12)
(0.000450547 -2.56525e-07 -0.00050545)
(0.00045059 -2.58318e-07 -0.000505497)
(0.000450634 -2.60138e-07 -0.000505545)
(0.000450678 -2.61983e-07 -0.000505594)
(0.000450723 -2.63854e-07 -0.000505643)
(0.000450768 -2.65752e-07 -0.000505693)
(0.000450814 -2.67678e-07 -0.000505744)
(0.000450861 -2.69632e-07 -0.000505796)
(0.000450908 -2.71615e-07 -0.000505848)
(0.000450956 -2.73627e-07 -0.000505901)
(0.000451005 -2.75669e-07 -0.000505955)
(0.000451055 -2.77742e-07 -0.00050601)
(0.000451105 -2.79846e-07 -0.000506065)
(0.000451156 -2.81982e-07 -0.000506121)
(0.000451208 -2.84151e-07 -0.000506179)
(0.000451261 -2.86354e-07 -0.000506237)
(0.000451314 -2.88591e-07 -0.000506296)
(0.000451368 -2.90864e-07 -0.000506356)
(0.000451423 -2.93172e-07 -0.000506416)
(0.00045148 -2.95518e-07 -0.000506478)
(0.000451536 -2.97901e-07 -0.000506541)
(0.000486286 -3.25843e-07 -6.89142e-12)
(0.000450257 -2.5641e-07 -0.000505125)
(0.000450297 -2.58202e-07 -0.00050517)
(0.000450339 -2.6002e-07 -0.000505215)
(0.000450381 -2.61863e-07 -0.000505262)
(0.000450424 -2.63732e-07 -0.000505309)
(0.000450467 -2.65628e-07 -0.000505356)
(0.000450511 -2.67552e-07 -0.000505405)
(0.000450555 -2.69504e-07 -0.000505454)
(0.0004506 -2.71485e-07 -0.000505504)
(0.000450646 -2.73494e-07 -0.000505554)
(0.000450693 -2.75534e-07 -0.000505605)
(0.00045074 -2.77605e-07 -0.000505657)
(0.000450788 -2.79707e-07 -0.00050571)
(0.000450837 -2.81841e-07 -0.000505764)
(0.000450886 -2.84007e-07 -0.000505818)
(0.000450936 -2.86208e-07 -0.000505874)
(0.000450987 -2.88443e-07 -0.00050593)
(0.000451039 -2.90712e-07 -0.000505987)
(0.000451091 -2.93018e-07 -0.000506045)
(0.000451145 -2.95361e-07 -0.000506104)
(0.000451199 -2.97742e-07 -0.000506163)
(0.000485917 -3.25665e-07 -6.61506e-12)
(0.00044996 -2.5668e-07 -0.000504792)
(0.000449998 -2.58473e-07 -0.000504835)
(0.000450038 -2.60291e-07 -0.000504879)
(0.000450078 -2.62135e-07 -0.000504923)
(0.000450118 -2.64006e-07 -0.000504967)
(0.000450159 -2.65903e-07 -0.000505012)
(0.000450201 -2.67828e-07 -0.000505058)
(0.000450243 -2.6978e-07 -0.000505105)
(0.000450286 -2.71762e-07 -0.000505152)
(0.00045033 -2.73773e-07 -0.0005052)
(0.000450374 -2.75813e-07 -0.000505249)
(0.000450418 -2.77885e-07 -0.000505298)
(0.000450464 -2.79988e-07 -0.000505348)
(0.00045051 -2.82123e-07 -0.000505399)
(0.000450557 -2.8429e-07 -0.000505451)
(0.000450605 -2.86491e-07 -0.000505503)
(0.000450653 -2.88727e-07 -0.000505556)
(0.000450702 -2.90998e-07 -0.00050561)
(0.000450752 -2.93304e-07 -0.000505665)
(0.000450803 -2.95648e-07 -0.000505721)
(0.000450854 -2.98029e-07 -0.000505778)
(0.000485541 -3.25927e-07 -5.49156e-12)
(0.000449663 -2.56949e-07 -0.000504461)
(0.0004497 -2.58743e-07 -0.000504501)
(0.000449737 -2.60562e-07 -0.000504542)
(0.000449775 -2.62407e-07 -0.000504584)
(0.000449813 -2.64278e-07 -0.000504626)
(0.000449852 -2.66176e-07 -0.000504669)
(0.000449891 -2.68102e-07 -0.000504712)
(0.000449931 -2.70056e-07 -0.000504756)
(0.000449972 -2.72038e-07 -0.000504801)
(0.000450013 -2.7405e-07 -0.000504846)
(0.000450055 -2.76092e-07 -0.000504892)
(0.000450097 -2.78164e-07 -0.000504939)
(0.00045014 -2.80268e-07 -0.000504986)
(0.000450184 -2.82404e-07 -0.000505034)
(0.000450228 -2.84572e-07 -0.000505083)
(0.000450273 -2.86774e-07 -0.000505133)
(0.000450319 -2.89011e-07 -0.000505183)
(0.000450366 -2.91282e-07 -0.000505234)
(0.000450413 -2.9359e-07 -0.000505286)
(0.000450461 -2.95934e-07 -0.000505339)
(0.000450509 -2.98317e-07 -0.000505393)
(0.000485165 -3.26189e-07 -5.24955e-12)
(0.000449366 -2.57217e-07 -0.000504129)
(0.000449401 -2.59012e-07 -0.000504167)
(0.000449436 -2.60832e-07 -0.000504206)
(0.000449472 -2.62678e-07 -0.000504245)
(0.000449508 -2.64551e-07 -0.000504285)
(0.000449544 -2.6645e-07 -0.000504325)
(0.000449582 -2.68376e-07 -0.000504366)
(0.000449619 -2.70331e-07 -0.000504407)
(0.000449658 -2.72314e-07 -0.000504449)
(0.000449697 -2.74327e-07 -0.000504492)
(0.000449736 -2.7637e-07 -0.000504536)
(0.000449776 -2.78443e-07 -0.00050458)
(0.000449817 -2.80548e-07 -0.000504624)
(0.000449858 -2.82684e-07 -0.00050467)
(0.0004499 -2.84854e-07 -0.000504716)
(0.000449942 -2.87057e-07 -0.000504762)
(0.000449985 -2.89294e-07 -0.00050481)
(0.000450029 -2.91567e-07 -0.000504858)
(0.000450074 -2.93875e-07 -0.000504907)
(0.000450119 -2.9622e-07 -0.000504957)
(0.000450165 -2.98604e-07 -0.000505007)
(0.00048479 -3.2645e-07 -5.10122e-12)
(0.00044907 -2.57486e-07 -0.000503797)
(0.000449102 -2.59282e-07 -0.000503833)
(0.000449135 -2.61103e-07 -0.00050387)
(0.000449169 -2.62949e-07 -0.000503906)
(0.000449203 -2.64823e-07 -0.000503944)
(0.000449237 -2.66723e-07 -0.000503982)
(0.000449272 -2.6865e-07 -0.00050402)
(0.000449308 -2.70606e-07 -0.000504059)
(0.000449344 -2.7259e-07 -0.000504099)
(0.00044938 -2.74604e-07 -0.000504139)
(0.000449417 -2.76647e-07 -0.000504179)
(0.000449455 -2.78721e-07 -0.000504221)
(0.000449493 -2.80827e-07 -0.000504263)
(0.000449532 -2.82964e-07 -0.000504305)
(0.000449571 -2.85135e-07 -0.000504349)
(0.000449611 -2.87339e-07 -0.000504392)
(0.000449652 -2.89577e-07 -0.000504437)
(0.000449693 -2.9185e-07 -0.000504482)
(0.000449735 -2.9416e-07 -0.000504528)
(0.000449778 -2.96506e-07 -0.000504575)
(0.000449821 -2.9889e-07 -0.000504623)
(0.000484415 -3.26711e-07 -4.95324e-12)
(0.000448773 -2.57754e-07 -0.000503466)
(0.000448804 -2.5955e-07 -0.0005035)
(0.000448835 -2.61372e-07 -0.000503534)
(0.000448866 -2.6322e-07 -0.000503568)
(0.000448898 -2.65094e-07 -0.000503603)
(0.00044893 -2.66995e-07 -0.000503638)
(0.000448963 -2.68924e-07 -0.000503674)
(0.000448996 -2.7088e-07 -0.000503711)
(0.00044903 -2.72865e-07 -0.000503748)
(0.000449064 -2.7488e-07 -0.000503785)
(0.000449099 -2.76924e-07 -0.000503823)
(0.000449134 -2.78999e-07 -0.000503862)
(0.00044917 -2.81106e-07 -0.000503901)
(0.000449206 -2.83244e-07 -0.000503941)
(0.000449243 -2.85415e-07 -0.000503982)
(0.000449281 -2.8762e-07 -0.000504023)
(0.000449319 -2.89859e-07 -0.000504064)
(0.000449357 -2.92134e-07 -0.000504107)
(0.000449396 -2.94444e-07 -0.00050415)
(0.000449436 -2.96791e-07 -0.000504194)
(0.000449477 -2.99176e-07 -0.000504238)
(0.000484039 -3.26972e-07 -4.80555e-12)
(0.000448477 -2.58021e-07 -0.000503135)
(0.000448505 -2.59819e-07 -0.000503166)
(0.000448534 -2.61642e-07 -0.000503198)
(0.000448564 -2.63491e-07 -0.00050323)
(0.000448593 -2.65366e-07 -0.000503262)
(0.000448623 -2.67267e-07 -0.000503295)
(0.000448654 -2.69197e-07 -0.000503329)
(0.000448685 -2.71154e-07 -0.000503363)
(0.000448716 -2.7314e-07 -0.000503397)
(0.000448748 -2.75156e-07 -0.000503432)
(0.000448781 -2.77201e-07 -0.000503468)
(0.000448814 -2.79277e-07 -0.000503504)
(0.000448847 -2.81384e-07 -0.00050354)
(0.000448881 -2.83523e-07 -0.000503577)
(0.000448915 -2.85696e-07 -0.000503615)
(0.00044895 -2.87901e-07 -0.000503653)
(0.000448985 -2.90141e-07 -0.000503692)
(0.000449021 -2.92416e-07 -0.000503732)
(0.000449058 -2.94727e-07 -0.000503772)
(0.000449095 -2.97075e-07 -0.000503812)
(0.000449133 -2.99461e-07 -0.000503854)
(0.000483665 -3.27231e-07 -4.65815e-12)
(0.000448181 -2.58288e-07 -0.000502804)
(0.000448207 -2.60087e-07 -0.000502833)
(0.000448234 -2.61911e-07 -0.000502862)
(0.000448261 -2.6376e-07 -0.000502892)
(0.000448289 -2.65636e-07 -0.000502922)
(0.000448317 -2.67539e-07 -0.000502952)
(0.000448345 -2.69469e-07 -0.000502983)
(0.000448374 -2.71428e-07 -0.000503015)
(0.000448403 -2.73414e-07 -0.000503047)
(0.000448433 -2.75431e-07 -0.000503079)
(0.000448463 -2.77477e-07 -0.000503112)
(0.000448493 -2.79554e-07 -0.000503145)
(0.000448524 -2.81662e-07 -0.000503179)
(0.000448555 -2.83802e-07 -0.000503214)
(0.000448587 -2.85975e-07 -0.000503249)
(0.00044862 -2.88182e-07 -0.000503284)
(0.000448653 -2.90422e-07 -0.00050332)
(0.000448686 -2.92698e-07 -0.000503356)
(0.00044872 -2.9501e-07 -0.000503394)
(0.000448754 -2.97359e-07 -0.000503431)
(0.000448789 -2.99745e-07 -0.00050347)
(0.00048329 -3.2749e-07 -4.51104e-12)
(0.000447885 -2.58555e-07 -0.000502473)
(0.000447909 -2.60354e-07 -0.0005025)
(0.000447934 -2.62179e-07 -0.000502527)
(0.000447959 -2.6403e-07 -0.000502554)
(0.000447984 -2.65906e-07 -0.000502582)
(0.00044801 -2.6781e-07 -0.00050261)
(0.000448036 -2.69741e-07 -0.000502638)
(0.000448063 -2.717e-07 -0.000502667)
(0.00044809 -2.73688e-07 -0.000502697)
(0.000448117 -2.75705e-07 -0.000502726)
(0.000448145 -2.77752e-07 -0.000502757)
(0.000448173 -2.7983e-07 -0.000502787)
(0.000448201 -2.81939e-07 -0.000502819)
(0.00044823 -2.8408e-07 -0.00050285)
(0.00044826 -2.86254e-07 -0.000502882)
(0.00044829 -2.88461e-07 -0.000502915)
(0.00044832 -2.90703e-07 -0.000502948)
(0.000448351 -2.9298e-07 -0.000502982)
(0.000448382 -2.95292e-07 -0.000503016)
(0.000448414 -2.97642e-07 -0.00050305)
(0.000448446 -3.00029e-07 -0.000503086)
(0.000482916 -3.27748e-07 -4.36421e-12)
(0.000447589 -2.58821e-07 -0.000502143)
(0.000447612 -2.60621e-07 -0.000502167)
(0.000447634 -2.62447e-07 -0.000502191)
(0.000447657 -2.64298e-07 -0.000502216)
(0.00044768 -2.66176e-07 -0.000502242)
(0.000447704 -2.68081e-07 -0.000502267)
(0.000447728 -2.70013e-07 -0.000502293)
(0.000447752 -2.71973e-07 -0.00050232)
(0.000447777 -2.73961e-07 -0.000502347)
(0.000447802 -2.75979e-07 -0.000502374)
(0.000447827 -2.78027e-07 -0.000502402)
(0.000447853 -2.80106e-07 -0.00050243)
(0.000447879 -2.82216e-07 -0.000502458)
(0.000447905 -2.84357e-07 -0.000502487)
(0.000447932 -2.86532e-07 -0.000502516)
(0.00044796 -2.8874e-07 -0.000502546)
(0.000447987 -2.90983e-07 -0.000502576)
(0.000448015 -2.9326e-07 -0.000502607)
(0.000448044 -2.95574e-07 -0.000502638)
(0.000448073 -2.97924e-07 -0.00050267)
(0.000448103 -3.00312e-07 -0.000502702)
(0.000482541 -3.28005e-07 -4.21768e-12)
(0.000447294 -2.59087e-07 -0.000501812)
(0.000447314 -2.60888e-07 -0.000501834)
(0.000447334 -2.62714e-07 -0.000501856)
(0.000447355 -2.64566e-07 -0.000501879)
(0.000447376 -2.66445e-07 -0.000501902)
(0.000447398 -2.6835e-07 -0.000501925)
(0.000447419 -2.70283e-07 -0.000501949)
(0.000447441 -2.72244e-07 -0.000501973)
(0.000447464 -2.74234e-07 -0.000501997)
(0.000447486 -2.76252e-07 -0.000502022)
(0.000447509 -2.78301e-07 -0.000502047)
(0.000447533 -2.80381e-07 -0.000502072)
(0.000447556 -2.82491e-07 -0.000502098)
(0.000447581 -2.84634e-07 -0.000502124)
(0.000447605 -2.86809e-07 -0.00050215)
(0.00044763 -2.89018e-07 -0.000502177)
(0.000447655 -2.91262e-07 -0.000502205)
(0.000447681 -2.9354e-07 -0.000502233)
(0.000447707 -2.95854e-07 -0.000502261)
(0.000447733 -2.98205e-07 -0.00050229)
(0.00044776 -3.00594e-07 -0.000502319)
(0.000482168 -3.28262e-07 -4.07143e-12)
(0.000446998 -2.59351e-07 -0.000501482)
(0.000447016 -2.61153e-07 -0.000501502)
(0.000447035 -2.62981e-07 -0.000501521)
(0.000447053 -2.64834e-07 -0.000501542)
(0.000447072 -2.66713e-07 -0.000501562)
(0.000447092 -2.68619e-07 -0.000501583)
(0.000447111 -2.70553e-07 -0.000501604)
(0.000447131 -2.72515e-07 -0.000501626)
(0.000447151 -2.74505e-07 -0.000501647)
(0.000447171 -2.76525e-07 -0.000501669)
(0.000447192 -2.78574e-07 -0.000501692)
(0.000447213 -2.80655e-07 -0.000501715)
(0.000447234 -2.82766e-07 -0.000501738)
(0.000447256 -2.8491e-07 -0.000501761)
(0.000447278 -2.87086e-07 -0.000501785)
(0.0004473 -2.89296e-07 -0.000501809)
(0.000447323 -2.9154e-07 -0.000501834)
(0.000447346 -2.93819e-07 -0.000501858)
(0.000447369 -2.96134e-07 -0.000501884)
(0.000447393 -2.98486e-07 -0.000501909)
(0.000447417 -3.00875e-07 -0.000501936)
(0.000481794 -3.28517e-07 -3.92547e-12)
(0.000446703 -2.59615e-07 -0.000501152)
(0.000446719 -2.61418e-07 -0.000501169)
(0.000446735 -2.63246e-07 -0.000501187)
(0.000446752 -2.651e-07 -0.000501205)
(0.000446769 -2.66981e-07 -0.000501223)
(0.000446786 -2.68888e-07 -0.000501241)
(0.000446803 -2.70822e-07 -0.00050126)
(0.000446821 -2.72785e-07 -0.000501279)
(0.000446838 -2.74776e-07 -0.000501298)
(0.000446856 -2.76796e-07 -0.000501318)
(0.000446875 -2.78847e-07 -0.000501337)
(0.000446893 -2.80928e-07 -0.000501357)
(0.000446912 -2.8304e-07 -0.000501378)
(0.000446932 -2.85184e-07 -0.000501399)
(0.000446951 -2.87361e-07 -0.00050142)
(0.000446971 -2.89572e-07 -0.000501441)
(0.000446991 -2.91817e-07 -0.000501463)
(0.000447011 -2.94097e-07 -0.000501485)
(0.000447032 -2.96412e-07 -0.000501507)
(0.000447053 -2.98765e-07 -0.00050153)
(0.000447074 -3.01155e-07 -0.000501553)
(0.00048142 -3.28771e-07 -3.7798e-12)
(0.000446408 -2.59879e-07 -0.000500822)
(0.000446422 -2.61682e-07 -0.000500837)
(0.000446436 -2.63511e-07 -0.000500852)
(0.00044645 -2.65366e-07 -0.000500868)
(0.000446465 -2.67247e-07 -0.000500884)
(0.00044648 -2.69155e-07 -0.0005009)
(0.000446495 -2.7109e-07 -0.000500916)
(0.00044651 -2.73054e-07 -0.000500932)
(0.000446526 -2.75046e-07 -0.000500949)
(0.000446542 -2.77067e-07 -0.000500966)
(0.000446558 -2.79118e-07 -0.000500983)
(0.000446574 -2.812e-07 -0.000501)
(0.000446591 -2.83313e-07 -0.000501018)
(0.000446607 -2.85458e-07 -0.000501036)
(0.000446624 -2.87636e-07 -0.000501054)
(0.000446642 -2.89847e-07 -0.000501073)
(0.000446659 -2.92093e-07 -0.000501092)
(0.000446677 -2.94374e-07 -0.000501111)
(0.000446695 -2.9669e-07 -0.00050113)
(0.000446713 -2.99043e-07 -0.00050115)
(0.000446732 -3.01434e-07 -0.00050117)
(0.000481047 -3.29024e-07 -3.63441e-12)
(0.000446113 -2.60154e-07 -0.000500492)
(0.000446125 -2.61958e-07 -0.000500505)
(0.000446137 -2.63788e-07 -0.000500518)
(0.000446149 -2.65644e-07 -0.000500531)
(0.000446162 -2.67526e-07 -0.000500545)
(0.000446175 -2.69435e-07 -0.000500558)
(0.000446188 -2.71371e-07 -0.000500572)
(0.000446201 -2.73336e-07 -0.000500586)
(0.000446214 -2.75329e-07 -0.0005006)
(0.000446227 -2.77351e-07 -0.000500614)
(0.000446241 -2.79403e-07 -0.000500629)
(0.000446255 -2.81486e-07 -0.000500644)
(0.000446269 -2.836e-07 -0.000500659)
(0.000446283 -2.85746e-07 -0.000500674)
(0.000446298 -2.87925e-07 -0.00050069)
(0.000446313 -2.90137e-07 -0.000500705)
(0.000446328 -2.92384e-07 -0.000500721)
(0.000446343 -2.94666e-07 -0.000500738)
(0.000446358 -2.96983e-07 -0.000500754)
(0.000446374 -2.99337e-07 -0.000500771)
(0.00044639 -3.01729e-07 -0.000500788)
(0.000480674 -3.29293e-07 -3.48505e-12)
(0.000445921 -2.66596e-07 -0.000500272)
(0.000445931 -2.68445e-07 -0.000500283)
(0.000445942 -2.7032e-07 -0.000500294)
(0.000445953 -2.72221e-07 -0.000500306)
(0.000445964 -2.74149e-07 -0.000500318)
(0.000445976 -2.76105e-07 -0.00050033)
(0.000445987 -2.78089e-07 -0.000500342)
(0.000445999 -2.80102e-07 -0.000500354)
(0.000446011 -2.82144e-07 -0.000500367)
(0.000446023 -2.84216e-07 -0.000500379)
(0.000446035 -2.86318e-07 -0.000500392)
(0.000446047 -2.88452e-07 -0.000500405)
(0.00044606 -2.90618e-07 -0.000500419)
(0.000446073 -2.92817e-07 -0.000500432)
(0.000446085 -2.95049e-07 -0.000500446)
(0.000446099 -2.97316e-07 -0.00050046)
(0.000446112 -2.99618e-07 -0.000500474)
(0.000446125 -3.01955e-07 -0.000500488)
(0.000446139 -3.0433e-07 -0.000500502)
(0.000446153 -3.06742e-07 -0.000500517)
(0.000446167 -3.09192e-07 -0.000500532)
(0.000480419 -3.36662e-07 -1.6777e-11)
)
;

boundaryField
{
    inlet
    {
        type            calculated;
        value           uniform (0 0 0);
    }
    outlet2
    {
        type            calculated;
        value           uniform (0 0 0);
    }
    outlet1
    {
        type            calculated;
        value           uniform (0 0 0);
    }
    wall
    {
        type            calculated;
        value           uniform (0 0 0);
    }
    symmetryBottom
    {
        type            symmetry;
    }
    symmetryZ0
    {
        type            symmetry;
    }
    symmetryZ05
    {
        type            symmetry;
    }
}


// ************************************************************************* //
