/*--------------------------------*- C++ -*----------------------------------*\
| =========                 |                                                 |
| \\      /  F ield         | OpenFOAM: The Open Source CFD Toolbox           |
|  \\    /   O peration     | Version:  2412                                  |
|   \\  /    A nd           | Website:  www.openfoam.com                      |
|    \\/     M anipulation  |                                                 |
\*---------------------------------------------------------------------------*/
FoamFile
{
    version     2.0;
    format      ascii;
    arch        "LSB;label=32;scalar=64";
    class       volVectorField;
    location    "8.31363e-07";
    object      rhoU_dof0;
}
// * * * * * * * * * * * * * * * * * * * * * * * * * * * * * * * * * * * * * //

dimensions      [0 0 0 0 0 0 0];

internalField   nonuniform List<vector> 
625
(
(0.0749274 -2.02966e-07 -4.71639e-07)
(0.064872 -3.39306e-07 -5.11538e-07)
(0.064872 -3.3995e-07 5.84044e-09)
(0.0749286 -4.76488e-05 -4.71624e-07)
(0.0648731 -4.33913e-05 -5.11525e-07)
(0.0648731 -4.3392e-05 -3.04166e-10)
(0.0749274 -4.75313e-05 -4.71631e-07)
(0.064872 -4.32818e-05 -5.11534e-07)
(0.064872 -4.32825e-05 -2.42609e-10)
(0.0749274 -4.75317e-05 -4.71631e-07)
(0.064872 -4.32822e-05 -5.11533e-07)
(0.064872 -4.32828e-05 -2.42771e-10)
(0.0749274 -4.75317e-05 -4.71631e-07)
(0.064872 -4.32822e-05 -5.11533e-07)
(0.064872 -4.32828e-05 -2.4277e-10)
(0.0749274 -4.75317e-05 -4.71631e-07)
(0.064872 -4.32822e-05 -5.11533e-07)
(0.064872 -4.32828e-05 -2.4277e-10)
(0.0749274 -4.75317e-05 -4.71631e-07)
(0.064872 -4.32822e-05 -5.11533e-07)
(0.064872 -4.32828e-05 -2.4277e-10)
(0.0749274 -4.75317e-05 -4.71631e-07)
(0.064872 -4.32822e-05 -5.11533e-07)
(0.064872 -4.32828e-05 -2.4277e-10)
(0.0749274 -4.75317e-05 -4.71631e-07)
(0.064872 -4.32822e-05 -5.11533e-07)
(0.064872 -4.32828e-05 -2.4277e-10)
(0.0749274 -4.75317e-05 -4.71631e-07)
(0.064872 -4.32822e-05 -5.11533e-07)
(0.064872 -4.32828e-05 -2.4277e-10)
(0.0749274 -4.75317e-05 -4.71631e-07)
(0.064872 -4.32822e-05 -5.11533e-07)
(0.064872 -4.32828e-05 -2.4277e-10)
(0.0749274 -4.75317e-05 -4.71631e-07)
(0.064872 -4.32822e-05 -5.11533e-07)
(0.064872 -4.32828e-05 -2.4277e-10)
(0.0749274 -4.75317e-05 -4.71631e-07)
(0.064872 -4.32822e-05 -5.11533e-07)
(0.064872 -4.32828e-05 -2.4277e-10)
(0.0749274 -4.75317e-05 -4.71631e-07)
(0.064872 -4.32822e-05 -5.11533e-07)
(0.064872 -4.32828e-05 -2.4277e-10)
(0.0749274 -4.75317e-05 -4.71631e-07)
(0.064872 -4.32822e-05 -5.11533e-07)
(0.064872 -4.32828e-05 -2.4277e-10)
(0.0749274 -4.75317e-05 -4.71631e-07)
(0.064872 -4.32822e-05 -5.11533e-07)
(0.064872 -4.32828e-05 -2.4277e-10)
(0.0749274 -4.75317e-05 -4.71631e-07)
(0.064872 -4.32822e-05 -5.11533e-07)
(0.064872 -4.32828e-05 -2.4277e-10)
(0.0749274 -4.75317e-05 -4.71631e-07)
(0.064872 -4.32822e-05 -5.11533e-07)
(0.064872 -4.32828e-05 -2.4277e-10)
(0.0749274 -4.75317e-05 -4.71631e-07)
(0.064872 -4.32822e-05 -5.11533e-07)
(0.064872 -4.32828e-05 -2.4277e-10)
(0.0749274 -4.75317e-05 -4.71631e-07)
(0.064872 -4.32822e-05 -5.11533e-07)
(0.064872 -4.32828e-05 -2.4277e-10)
(0.0749274 -4.75317e-05 -4.71631e-07)
(0.064872 -4.32822e-05 -5.11533e-07)
(0.064872 -4.32828e-05 -2.4277e-10)
(0.0749274 -4.75317e-05 -4.71631e-07)
(0.064872 -4.32822e-05 -5.11533e-07)
(0.064872 -4.32828e-05 -2.42771e-10)
(0.0749274 -4.75317e-05 -4.71631e-07)
(0.064872 -4.32822e-05 -5.11533e-07)
(0.064872 -4.32828e-05 -2.40799e-10)
(0.0749274 -4.75316e-05 -4.71631e-07)
(0.064872 -4.32826e-05 -5.11534e-07)
(0.0648721 -4.32859e-05 -3.41192e-09)
(0.0749278 -4.75567e-05 -4.71837e-07)
(0.0648699 -4.31562e-05 -5.11751e-07)
(0.06487 -4.31595e-05 -5.14047e-07)
(0.0663355 4.13866e-06 -5.64206e-07)
(0.0663345 4.20238e-06 -5.64519e-07)
(0.0663335 4.26756e-06 -5.64837e-07)
(0.0663325 4.33423e-06 -5.65159e-07)
(0.0663315 4.40244e-06 -5.65487e-07)
(0.0663305 4.47225e-06 -5.65819e-07)
(0.0663295 4.54369e-06 -5.66156e-07)
(0.0663285 4.61683e-06 -5.66499e-07)
(0.0663274 4.69172e-06 -5.66847e-07)
(0.0663264 4.7684e-06 -5.672e-07)
(0.0663253 4.84694e-06 -5.67559e-07)
(0.0663242 4.9274e-06 -5.67924e-07)
(0.0663231 5.00985e-06 -5.68295e-07)
(0.066322 5.09433e-06 -5.68672e-07)
(0.0663209 5.18094e-06 -5.69055e-07)
(0.0663197 5.26973e-06 -5.69444e-07)
(0.0663186 5.36077e-06 -5.6984e-07)
(0.0663174 5.45416e-06 -5.70242e-07)
(0.0663162 5.54996e-06 -5.70652e-07)
(0.066315 5.64826e-06 -5.71068e-07)
(0.0663138 5.74914e-06 -5.71491e-07)
(0.0663713 5.74869e-06 -8.82378e-09)
(0.067669 -4.30407e-05 -5.32679e-07)
(0.0676773 -4.33245e-05 -5.32754e-07)
(0.0676857 -4.36119e-05 -5.32829e-07)
(0.0676942 -4.39032e-05 -5.32906e-07)
(0.0677029 -4.41983e-05 -5.32983e-07)
(0.0677117 -4.44973e-05 -5.33062e-07)
(0.0677206 -4.48004e-05 -5.33142e-07)
(0.0677296 -4.51075e-05 -5.33223e-07)
(0.0677388 -4.54189e-05 -5.33305e-07)
(0.0677481 -4.57345e-05 -5.33389e-07)
(0.0677575 -4.60544e-05 -5.33473e-07)
(0.0677671 -4.63788e-05 -5.33559e-07)
(0.0677768 -4.67077e-05 -5.33647e-07)
(0.0677867 -4.70413e-05 -5.33735e-07)
(0.0677968 -4.73795e-05 -5.33825e-07)
(0.067807 -4.77226e-05 -5.33916e-07)
(0.0678173 -4.80706e-05 -5.34009e-07)
(0.0678278 -4.84236e-05 -5.34104e-07)
(0.0678385 -4.87817e-05 -5.34199e-07)
(0.0678494 -4.91451e-05 -5.34297e-07)
(0.0678604 -4.95138e-05 -5.34395e-07)
(0.0679192 -4.95541e-05 -2.84545e-09)
(0.0676039 -4.52657e-05 -5.32377e-07)
(0.0676117 -4.55831e-05 -5.3245e-07)
(0.0676195 -4.5905e-05 -5.32523e-07)
(0.0676275 -4.62314e-05 -5.32597e-07)
(0.0676355 -4.65626e-05 -5.32672e-07)
(0.0676437 -4.68985e-05 -5.32749e-07)
(0.067652 -4.72393e-05 -5.32826e-07)
(0.0676604 -4.75851e-05 -5.32905e-07)
(0.067669 -4.7936e-05 -5.32985e-07)
(0.0676776 -4.82921e-05 -5.33066e-07)
(0.0676864 -4.86535e-05 -5.33148e-07)
(0.0676953 -4.90204e-05 -5.33231e-07)
(0.0677044 -4.93929e-05 -5.33316e-07)
(0.0677136 -4.9771e-05 -5.33402e-07)
(0.0677229 -5.01551e-05 -5.33489e-07)
(0.0677324 -5.05451e-05 -5.33577e-07)
(0.0677421 -5.09412e-05 -5.33667e-07)
(0.0677518 -5.13435e-05 -5.33759e-07)
(0.0677618 -5.17523e-05 -5.33852e-07)
(0.0677719 -5.21677e-05 -5.33946e-07)
(0.0677821 -5.25897e-05 -5.34042e-07)
(0.0678408 -5.26313e-05 -2.18628e-09)
(0.0675533 -4.52179e-05 -5.3209e-07)
(0.0675607 -4.55345e-05 -5.3216e-07)
(0.0675682 -4.58555e-05 -5.32231e-07)
(0.0675758 -4.61811e-05 -5.32303e-07)
(0.0675835 -4.65113e-05 -5.32376e-07)
(0.0675913 -4.68463e-05 -5.32451e-07)
(0.0675992 -4.71862e-05 -5.32526e-07)
(0.0676072 -4.7531e-05 -5.32602e-07)
(0.0676154 -4.78809e-05 -5.3268e-07)
(0.0676236 -4.8236e-05 -5.32758e-07)
(0.067632 -4.85964e-05 -5.32838e-07)
(0.0676405 -4.89622e-05 -5.32919e-07)
(0.0676492 -4.93335e-05 -5.33002e-07)
(0.067658 -4.97106e-05 -5.33085e-07)
(0.0676669 -5.00934e-05 -5.3317e-07)
(0.0676759 -5.04822e-05 -5.33256e-07)
(0.0676851 -5.08771e-05 -5.33344e-07)
(0.0676944 -5.12782e-05 -5.33432e-07)
(0.0677039 -5.16857e-05 -5.33523e-07)
(0.0677136 -5.20997e-05 -5.33614e-07)
(0.0677233 -5.25204e-05 -5.33707e-07)
(0.067782 -5.25618e-05 -2.09427e-09)
(0.0675027 -4.51908e-05 -5.31802e-07)
(0.0675098 -4.5507e-05 -5.3187e-07)
(0.0675169 -4.58276e-05 -5.31939e-07)
(0.0675241 -4.61528e-05 -5.32009e-07)
(0.0675314 -4.64827e-05 -5.3208e-07)
(0.0675388 -4.68172e-05 -5.32152e-07)
(0.0675464 -4.71567e-05 -5.32225e-07)
(0.067554 -4.75011e-05 -5.323e-07)
(0.0675618 -4.78505e-05 -5.32375e-07)
(0.0675697 -4.82052e-05 -5.32451e-07)
(0.0675776 -4.85651e-05 -5.32529e-07)
(0.0675858 -4.89305e-05 -5.32608e-07)
(0.067594 -4.93014e-05 -5.32687e-07)
(0.0676023 -4.96779e-05 -5.32769e-07)
(0.0676108 -5.00603e-05 -5.32851e-07)
(0.0676194 -5.04486e-05 -5.32935e-07)
(0.0676282 -5.08429e-05 -5.3302e-07)
(0.0676371 -5.12435e-05 -5.33106e-07)
(0.0676461 -5.16504e-05 -5.33193e-07)
(0.0676553 -5.20638e-05 -5.33282e-07)
(0.0676646 -5.2484e-05 -5.33373e-07)
(0.0677232 -5.25252e-05 -2.00147e-09)
(0.0674522 -4.51636e-05 -5.31514e-07)
(0.0674588 -4.54794e-05 -5.3158e-07)
(0.0674656 -4.57997e-05 -5.31647e-07)
(0.0674725 -4.61245e-05 -5.31715e-07)
(0.0674794 -4.64539e-05 -5.31784e-07)
(0.0674865 -4.67881e-05 -5.31854e-07)
(0.0674936 -4.71271e-05 -5.31925e-07)
(0.0675009 -4.74711e-05 -5.31997e-07)
(0.0675082 -4.78201e-05 -5.3207e-07)
(0.0675157 -4.81743e-05 -5.32144e-07)
(0.0675233 -4.85338e-05 -5.3222e-07)
(0.067531 -4.88986e-05 -5.32296e-07)
(0.0675388 -4.9269e-05 -5.32373e-07)
(0.0675468 -4.96451e-05 -5.32452e-07)
(0.0675548 -5.0027e-05 -5.32532e-07)
(0.067563 -5.04147e-05 -5.32613e-07)
(0.0675713 -5.08086e-05 -5.32696e-07)
(0.0675797 -5.12086e-05 -5.32779e-07)
(0.0675883 -5.1615e-05 -5.32864e-07)
(0.067597 -5.20278e-05 -5.32951e-07)
(0.0676059 -5.24474e-05 -5.33039e-07)
(0.0676644 -5.24885e-05 -1.90861e-09)
(0.0674016 -4.51365e-05 -5.31226e-07)
(0.067408 -4.54519e-05 -5.31291e-07)
(0.0674144 -4.57717e-05 -5.31356e-07)
(0.0674209 -4.60961e-05 -5.31421e-07)
(0.0674274 -4.64252e-05 -5.31488e-07)
(0.0674341 -4.67589e-05 -5.31556e-07)
(0.0674409 -4.70975e-05 -5.31625e-07)
(0.0674478 -4.74411e-05 -5.31695e-07)
(0.0674547 -4.77896e-05 -5.31766e-07)
(0.0674618 -4.81434e-05 -5.31837e-07)
(0.067469 -4.85024e-05 -5.3191e-07)
(0.0674763 -4.88668e-05 -5.31984e-07)
(0.0674837 -4.92368e-05 -5.3206e-07)
(0.0674912 -4.96123e-05 -5.32136e-07)
(0.0674988 -4.99937e-05 -5.32213e-07)
(0.0675066 -5.03809e-05 -5.32292e-07)
(0.0675145 -5.07742e-05 -5.32372e-07)
(0.0675224 -5.11737e-05 -5.32453e-07)
(0.0675306 -5.15795e-05 -5.32535e-07)
(0.0675388 -5.19918e-05 -5.32619e-07)
(0.0675472 -5.24108e-05 -5.32704e-07)
(0.0676057 -5.24519e-05 -1.8157e-09)
(0.0673512 -4.51093e-05 -5.30939e-07)
(0.0673571 -4.54243e-05 -5.31001e-07)
(0.0673632 -4.57438e-05 -5.31064e-07)
(0.0673693 -4.60678e-05 -5.31128e-07)
(0.0673755 -4.63965e-05 -5.31193e-07)
(0.0673818 -4.67298e-05 -5.31258e-07)
(0.0673882 -4.7068e-05 -5.31325e-07)
(0.0673947 -4.74111e-05 -5.31393e-07)
(0.0674013 -4.77592e-05 -5.31461e-07)
(0.067408 -4.81125e-05 -5.31531e-07)
(0.0674147 -4.84711e-05 -5.31601e-07)
(0.0674216 -4.8835e-05 -5.31673e-07)
(0.0674286 -4.92045e-05 -5.31746e-07)
(0.0674357 -4.95795e-05 -5.3182e-07)
(0.0674429 -4.99604e-05 -5.31895e-07)
(0.0674502 -5.03471e-05 -5.31971e-07)
(0.0674577 -5.07399e-05 -5.32048e-07)
(0.0674652 -5.11389e-05 -5.32127e-07)
(0.0674729 -5.15441e-05 -5.32207e-07)
(0.0674806 -5.19559e-05 -5.32288e-07)
(0.0674886 -5.23742e-05 -5.3237e-07)
(0.067547 -5.24152e-05 -1.72275e-09)
(0.0673007 -4.50822e-05 -5.30652e-07)
(0.0673063 -4.53968e-05 -5.30712e-07)
(0.067312 -4.57159e-05 -5.30773e-07)
(0.0673177 -4.60395e-05 -5.30834e-07)
(0.0673236 -4.63678e-05 -5.30897e-07)
(0.0673295 -4.67007e-05 -5.30961e-07)
(0.0673355 -4.70384e-05 -5.31025e-07)
(0.0673417 -4.73811e-05 -5.3109e-07)
(0.0673479 -4.77288e-05 -5.31157e-07)
(0.0673541 -4.80817e-05 -5.31224e-07)
(0.0673605 -4.84398e-05 -5.31293e-07)
(0.067367 -4.88032e-05 -5.31362e-07)
(0.0673736 -4.91722e-05 -5.31432e-07)
(0.0673802 -4.95468e-05 -5.31504e-07)
(0.067387 -4.99271e-05 -5.31576e-07)
(0.0673939 -5.03134e-05 -5.3165e-07)
(0.0674009 -5.07056e-05 -5.31725e-07)
(0.067408 -5.1104e-05 -5.31801e-07)
(0.0674152 -5.15087e-05 -5.31878e-07)
(0.0674225 -5.19199e-05 -5.31957e-07)
(0.06743 -5.23377e-05 -5.32036e-07)
(0.0674884 -5.23785e-05 -1.6298e-09)
(0.0672503 -4.50548e-05 -5.30364e-07)
(0.0672555 -4.5369e-05 -5.30422e-07)
(0.0672608 -4.56878e-05 -5.30481e-07)
(0.0672662 -4.6011e-05 -5.30541e-07)
(0.0672717 -4.63388e-05 -5.30601e-07)
(0.0672773 -4.66713e-05 -5.30663e-07)
(0.0672829 -4.70086e-05 -5.30725e-07)
(0.0672887 -4.73509e-05 -5.30788e-07)
(0.0672945 -4.76982e-05 -5.30852e-07)
(0.0673003 -4.80506e-05 -5.30917e-07)
(0.0673063 -4.84082e-05 -5.30984e-07)
(0.0673124 -4.87712e-05 -5.31051e-07)
(0.0673186 -4.91397e-05 -5.31119e-07)
(0.0673248 -4.95138e-05 -5.31188e-07)
(0.0673312 -4.98936e-05 -5.31258e-07)
(0.0673376 -5.02793e-05 -5.31329e-07)
(0.0673442 -5.06711e-05 -5.31401e-07)
(0.0673508 -5.10689e-05 -5.31475e-07)
(0.0673576 -5.14731e-05 -5.3155e-07)
(0.0673644 -5.18837e-05 -5.31625e-07)
(0.0673714 -5.23009e-05 -5.31702e-07)
(0.0674298 -5.23416e-05 -1.52548e-09)
(0.0672 -4.50203e-05 -5.30062e-07)
(0.0672049 -4.53342e-05 -5.30118e-07)
(0.0672098 -4.56525e-05 -5.30175e-07)
(0.0672149 -4.59752e-05 -5.30233e-07)
(0.06722 -4.63026e-05 -5.30291e-07)
(0.0672252 -4.66347e-05 -5.3035e-07)
(0.0672305 -4.69715e-05 -5.3041e-07)
(0.0672358 -4.73133e-05 -5.30471e-07)
(0.0672412 -4.766e-05 -5.30533e-07)
(0.0672467 -4.80119e-05 -5.30596e-07)
(0.0672523 -4.8369e-05 -5.30659e-07)
(0.067258 -4.87315e-05 -5.30724e-07)
(0.0672637 -4.90995e-05 -5.30789e-07)
(0.0672696 -4.9473e-05 -5.30856e-07)
(0.0672755 -4.98523e-05 -5.30924e-07)
(0.0672815 -5.02374e-05 -5.30992e-07)
(0.0672876 -5.06285e-05 -5.31062e-07)
(0.0672938 -5.10258e-05 -5.31133e-07)
(0.0673001 -5.14294e-05 -5.31205e-07)
(0.0673065 -5.18393e-05 -5.31278e-07)
(0.067313 -5.22559e-05 -5.31352e-07)
(0.0673714 -5.22961e-05 -9.93551e-10)
(0.0671497 -4.49859e-05 -5.2976e-07)
(0.0671543 -4.52993e-05 -5.29814e-07)
(0.0671589 -4.56171e-05 -5.29869e-07)
(0.0671636 -4.59395e-05 -5.29924e-07)
(0.0671683 -4.62664e-05 -5.2998e-07)
(0.0671731 -4.6598e-05 -5.30037e-07)
(0.067178 -4.69343e-05 -5.30095e-07)
(0.067183 -4.72756e-05 -5.30154e-07)
(0.067188 -4.76219e-05 -5.30213e-07)
(0.0671931 -4.79733e-05 -5.30274e-07)
(0.0671983 -4.83299e-05 -5.30335e-07)
(0.0672036 -4.86918e-05 -5.30397e-07)
(0.0672089 -4.90592e-05 -5.3046e-07)
(0.0672143 -4.94322e-05 -5.30524e-07)
(0.0672198 -4.98109e-05 -5.30589e-07)
(0.0672254 -5.01955e-05 -5.30655e-07)
(0.0672311 -5.0586e-05 -5.30722e-07)
(0.0672369 -5.09827e-05 -5.3079e-07)
(0.0672427 -5.13856e-05 -5.3086e-07)
(0.0672487 -5.1795e-05 -5.3093e-07)
(0.0672547 -5.22109e-05 -5.31001e-07)
(0.067313 -5.2251e-05 -9.41055e-10)
(0.0670995 -4.49513e-05 -5.29459e-07)
(0.0671037 -4.52643e-05 -5.2951e-07)
(0.067108 -4.55817e-05 -5.29563e-07)
(0.0671123 -4.59036e-05 -5.29616e-07)
(0.0671167 -4.623e-05 -5.2967e-07)
(0.0671211 -4.65612e-05 -5.29725e-07)
(0.0671256 -4.68971e-05 -5.2978e-07)
(0.0671302 -4.72378e-05 -5.29836e-07)
(0.0671348 -4.75836e-05 -5.29894e-07)
(0.0671396 -4.79345e-05 -5.29952e-07)
(0.0671443 -4.82906e-05 -5.3001e-07)
(0.0671492 -4.8652e-05 -5.3007e-07)
(0.0671541 -4.90189e-05 -5.30131e-07)
(0.0671591 -4.93913e-05 -5.30192e-07)
(0.0671642 -4.97694e-05 -5.30255e-07)
(0.0671694 -5.01534e-05 -5.30318e-07)
(0.0671746 -5.05434e-05 -5.30383e-07)
(0.0671799 -5.09394e-05 -5.30448e-07)
(0.0671853 -5.13417e-05 -5.30515e-07)
(0.0671908 -5.17505e-05 -5.30582e-07)
(0.0671964 -5.21658e-05 -5.30651e-07)
(0.0672547 -5.22059e-05 -8.91083e-10)
(0.0670493 -4.49167e-05 -5.29157e-07)
(0.0670531 -4.52292e-05 -5.29207e-07)
(0.0670571 -4.55462e-05 -5.29257e-07)
(0.067061 -4.58676e-05 -5.29308e-07)
(0.067065 -4.61936e-05 -5.2936e-07)
(0.0670691 -4.65243e-05 -5.29412e-07)
(0.0670733 -4.68597e-05 -5.29465e-07)
(0.0670775 -4.72e-05 -5.29519e-07)
(0.0670817 -4.75453e-05 -5.29574e-07)
(0.067086 -4.78956e-05 -5.2963e-07)
(0.0670904 -4.82512e-05 -5.29686e-07)
(0.0670949 -4.86121e-05 -5.29744e-07)
(0.0670994 -4.89784e-05 -5.29802e-07)
(0.067104 -4.93503e-05 -5.29861e-07)
(0.0671086 -4.97279e-05 -5.29921e-07)
(0.0671134 -5.01113e-05 -5.29981e-07)
(0.0671182 -5.05006e-05 -5.30043e-07)
(0.0671231 -5.08961e-05 -5.30106e-07)
(0.067128 -5.12978e-05 -5.3017e-07)
(0.067133 -5.17059e-05 -5.30235e-07)
(0.0671382 -5.21205e-05 -5.303e-07)
(0.0671964 -5.21606e-05 -8.41212e-10)
(0.0669991 -4.4882e-05 -5.28855e-07)
(0.0670026 -4.51941e-05 -5.28903e-07)
(0.0670062 -4.55106e-05 -5.28951e-07)
(0.0670098 -4.58316e-05 -5.29e-07)
(0.0670135 -4.61571e-05 -5.29049e-07)
(0.0670172 -4.64873e-05 -5.291e-07)
(0.0670209 -4.68222e-05 -5.29151e-07)
(0.0670247 -4.7162e-05 -5.29202e-07)
(0.0670286 -4.75068e-05 -5.29255e-07)
(0.0670326 -4.78567e-05 -5.29308e-07)
(0.0670365 -4.82117e-05 -5.29362e-07)
(0.0670406 -4.85721e-05 -5.29417e-07)
(0.0670447 -4.89379e-05 -5.29473e-07)
(0.0670489 -4.93092e-05 -5.29529e-07)
(0.0670531 -4.96862e-05 -5.29587e-07)
(0.0670574 -5.0069e-05 -5.29645e-07)
(0.0670618 -5.04578e-05 -5.29704e-07)
(0.0670662 -5.08526e-05 -5.29764e-07)
(0.0670707 -5.12537e-05 -5.29825e-07)
(0.0670753 -5.16612e-05 -5.29887e-07)
(0.06708 -5.20751e-05 -5.2995e-07)
(0.0671381 -5.21153e-05 -7.9144e-10)
(0.066949 -4.48471e-05 -5.28554e-07)
(0.0669522 -4.51588e-05 -5.28599e-07)
(0.0669554 -4.54749e-05 -5.28645e-07)
(0.0669586 -4.57954e-05 -5.28692e-07)
(0.0669619 -4.61205e-05 -5.28739e-07)
(0.0669652 -4.64502e-05 -5.28787e-07)
(0.0669686 -4.67847e-05 -5.28836e-07)
(0.0669721 -4.7124e-05 -5.28886e-07)
(0.0669756 -4.74683e-05 -5.28936e-07)
(0.0669791 -4.78176e-05 -5.28987e-07)
(0.0669827 -4.81721e-05 -5.29038e-07)
(0.0669863 -4.8532e-05 -5.29091e-07)
(0.06699 -4.88972e-05 -5.29144e-07)
(0.0669938 -4.9268e-05 -5.29198e-07)
(0.0669976 -4.96444e-05 -5.29253e-07)
(0.0670015 -5.00267e-05 -5.29308e-07)
(0.0670054 -5.04148e-05 -5.29365e-07)
(0.0670094 -5.08091e-05 -5.29422e-07)
(0.0670135 -5.12095e-05 -5.29481e-07)
(0.0670176 -5.16163e-05 -5.2954e-07)
(0.0670218 -5.20297e-05 -5.296e-07)
(0.0670799 -5.20698e-05 -7.41769e-10)
(0.0668989 -4.48122e-05 -5.28253e-07)
(0.0669017 -4.51235e-05 -5.28296e-07)
(0.0669046 -4.54391e-05 -5.2834e-07)
(0.0669075 -4.57592e-05 -5.28384e-07)
(0.0669104 -4.60838e-05 -5.28429e-07)
(0.0669134 -4.64131e-05 -5.28475e-07)
(0.0669164 -4.6747e-05 -5.28522e-07)
(0.0669194 -4.70859e-05 -5.28569e-07)
(0.0669225 -4.74296e-05 -5.28617e-07)
(0.0669257 -4.77785e-05 -5.28665e-07)
(0.0669289 -4.81325e-05 -5.28714e-07)
(0.0669321 -4.84918e-05 -5.28764e-07)
(0.0669354 -4.88565e-05 -5.28815e-07)
(0.0669388 -4.92267e-05 -5.28867e-07)
(0.0669422 -4.96025e-05 -5.28919e-07)
(0.0669456 -4.99842e-05 -5.28972e-07)
(0.0669491 -5.03718e-05 -5.29026e-07)
(0.0669527 -5.07654e-05 -5.29081e-07)
(0.0669563 -5.11652e-05 -5.29136e-07)
(0.06696 -5.15714e-05 -5.29193e-07)
(0.0669637 -5.19841e-05 -5.2925e-07)
(0.0670218 -5.20242e-05 -6.92197e-10)
(0.0668488 -4.47773e-05 -5.27951e-07)
(0.0668513 -4.50881e-05 -5.27993e-07)
(0.0668538 -4.54033e-05 -5.28034e-07)
(0.0668563 -4.57229e-05 -5.28077e-07)
(0.0668589 -4.6047e-05 -5.2812e-07)
(0.0668615 -4.63758e-05 -5.28163e-07)
(0.0668642 -4.67093e-05 -5.28207e-07)
(0.0668668 -4.70476e-05 -5.28252e-07)
(0.0668696 -4.73909e-05 -5.28298e-07)
(0.0668723 -4.77392e-05 -5.28344e-07)
(0.0668751 -4.80927e-05 -5.28391e-07)
(0.066878 -4.84515e-05 -5.28438e-07)
(0.0668809 -4.88156e-05 -5.28487e-07)
(0.0668838 -4.91853e-05 -5.28536e-07)
(0.0668868 -4.95606e-05 -5.28585e-07)
(0.0668898 -4.99416e-05 -5.28636e-07)
(0.0668928 -5.03286e-05 -5.28687e-07)
(0.066896 -5.07216e-05 -5.28739e-07)
(0.0668991 -5.11208e-05 -5.28792e-07)
(0.0669023 -5.15264e-05 -5.28846e-07)
(0.0669056 -5.19384e-05 -5.28901e-07)
(0.0669637 -5.19785e-05 -6.42726e-10)
(0.0667988 -4.47422e-05 -5.2765e-07)
(0.0668009 -4.50526e-05 -5.27689e-07)
(0.0668031 -4.53673e-05 -5.27729e-07)
(0.0668052 -4.56865e-05 -5.27769e-07)
(0.0668075 -4.60102e-05 -5.2781e-07)
(0.0668097 -4.63385e-05 -5.27851e-07)
(0.066812 -4.66715e-05 -5.27893e-07)
(0.0668143 -4.70093e-05 -5.27936e-07)
(0.0668166 -4.73521e-05 -5.27979e-07)
(0.066819 -4.76999e-05 -5.28023e-07)
(0.0668214 -4.80529e-05 -5.28067e-07)
(0.0668238 -4.84111e-05 -5.28112e-07)
(0.0668263 -4.87747e-05 -5.28158e-07)
(0.0668288 -4.91438e-05 -5.28205e-07)
(0.0668314 -4.95185e-05 -5.28252e-07)
(0.066834 -4.9899e-05 -5.283e-07)
(0.0668366 -5.02853e-05 -5.28348e-07)
(0.0668393 -5.06778e-05 -5.28398e-07)
(0.066842 -5.10763e-05 -5.28448e-07)
(0.0668448 -5.14812e-05 -5.28499e-07)
(0.0668476 -5.18926e-05 -5.28551e-07)
(0.0669056 -5.19327e-05 -5.93356e-10)
(0.0667488 -4.47071e-05 -5.27349e-07)
(0.0667506 -4.5017e-05 -5.27386e-07)
(0.0667524 -4.53313e-05 -5.27424e-07)
(0.0667542 -4.565e-05 -5.27462e-07)
(0.066756 -4.59732e-05 -5.275e-07)
(0.0667579 -4.6301e-05 -5.2754e-07)
(0.0667598 -4.66336e-05 -5.27579e-07)
(0.0667617 -4.69709e-05 -5.2762e-07)
(0.0667637 -4.73132e-05 -5.2766e-07)
(0.0667657 -4.76605e-05 -5.27702e-07)
(0.0667677 -4.80129e-05 -5.27744e-07)
(0.0667697 -4.83706e-05 -5.27787e-07)
(0.0667718 -4.87336e-05 -5.2783e-07)
(0.0667739 -4.91022e-05 -5.27874e-07)
(0.0667761 -4.94763e-05 -5.27919e-07)
(0.0667782 -4.98562e-05 -5.27964e-07)
(0.0667804 -5.0242e-05 -5.2801e-07)
(0.0667827 -5.06338e-05 -5.28057e-07)
(0.0667849 -5.10317e-05 -5.28104e-07)
(0.0667873 -5.1436e-05 -5.28152e-07)
(0.0667896 -5.18467e-05 -5.28202e-07)
(0.0668476 -5.18868e-05 -5.44086e-10)
(0.0666988 -4.46718e-05 -5.27048e-07)
(0.0667003 -4.49813e-05 -5.27083e-07)
(0.0667017 -4.52952e-05 -5.27119e-07)
(0.0667032 -4.56134e-05 -5.27155e-07)
(0.0667047 -4.59362e-05 -5.27191e-07)
(0.0667062 -4.62635e-05 -5.27228e-07)
(0.0667077 -4.65956e-05 -5.27265e-07)
(0.0667092 -4.69324e-05 -5.27303e-07)
(0.0667108 -4.72742e-05 -5.27342e-07)
(0.0667124 -4.7621e-05 -5.27381e-07)
(0.066714 -4.79729e-05 -5.27421e-07)
(0.0667157 -4.833e-05 -5.27461e-07)
(0.0667173 -4.86925e-05 -5.27502e-07)
(0.066719 -4.90605e-05 -5.27543e-07)
(0.0667208 -4.9434e-05 -5.27585e-07)
(0.0667225 -4.98134e-05 -5.27628e-07)
(0.0667243 -5.01985e-05 -5.27672e-07)
(0.0667261 -5.05897e-05 -5.27716e-07)
(0.0667279 -5.0987e-05 -5.27761e-07)
(0.0667298 -5.13906e-05 -5.27806e-07)
(0.0667317 -5.18007e-05 -5.27852e-07)
(0.0667896 -5.18408e-05 -4.94917e-10)
(0.0666489 -4.46365e-05 -5.26748e-07)
(0.06665 -4.49456e-05 -5.26781e-07)
(0.0666511 -4.5259e-05 -5.26814e-07)
(0.0666522 -4.55768e-05 -5.26848e-07)
(0.0666533 -4.58991e-05 -5.26882e-07)
(0.0666545 -4.62259e-05 -5.26916e-07)
(0.0666556 -4.65575e-05 -5.26952e-07)
(0.0666568 -4.68939e-05 -5.26987e-07)
(0.066658 -4.72351e-05 -5.27023e-07)
(0.0666592 -4.75814e-05 -5.2706e-07)
(0.0666604 -4.79327e-05 -5.27098e-07)
(0.0666617 -4.82893e-05 -5.27135e-07)
(0.0666629 -4.86513e-05 -5.27174e-07)
(0.0666642 -4.90187e-05 -5.27213e-07)
(0.0666655 -4.93917e-05 -5.27252e-07)
(0.0666668 -4.97704e-05 -5.27293e-07)
(0.0666682 -5.0155e-05 -5.27333e-07)
(0.0666695 -5.05455e-05 -5.27375e-07)
(0.0666709 -5.09422e-05 -5.27417e-07)
(0.0666723 -5.13452e-05 -5.2746e-07)
(0.0666738 -5.17546e-05 -5.27503e-07)
(0.0667316 -5.17947e-05 -4.4585e-10)
(0.066599 -4.46011e-05 -5.26447e-07)
(0.0665997 -4.49098e-05 -5.26478e-07)
(0.0666005 -4.52227e-05 -5.26509e-07)
(0.0666012 -4.554e-05 -5.26541e-07)
(0.066602 -4.58619e-05 -5.26573e-07)
(0.0666028 -4.61883e-05 -5.26605e-07)
(0.0666036 -4.65193e-05 -5.26638e-07)
(0.0666044 -4.68552e-05 -5.26671e-07)
(0.0666052 -4.71959e-05 -5.26705e-07)
(0.066606 -4.75417e-05 -5.2674e-07)
(0.0666068 -4.78925e-05 -5.26775e-07)
(0.0666077 -4.82486e-05 -5.2681e-07)
(0.0666085 -4.861e-05 -5.26846e-07)
(0.0666094 -4.89768e-05 -5.26882e-07)
(0.0666103 -4.93492e-05 -5.26919e-07)
(0.0666112 -4.97274e-05 -5.26957e-07)
(0.0666121 -5.01113e-05 -5.26995e-07)
(0.066613 -5.05013e-05 -5.27034e-07)
(0.066614 -5.08973e-05 -5.27074e-07)
(0.0666149 -5.12997e-05 -5.27114e-07)
(0.0666159 -5.17084e-05 -5.27154e-07)
(0.0666737 -5.17484e-05 -3.96889e-10)
(0.0665492 -4.45661e-05 -5.26147e-07)
(0.0665495 -4.48743e-05 -5.26175e-07)
(0.0665499 -4.51868e-05 -5.26204e-07)
(0.0665503 -4.55036e-05 -5.26234e-07)
(0.0665507 -4.5825e-05 -5.26264e-07)
(0.0665511 -4.61509e-05 -5.26294e-07)
(0.0665516 -4.64815e-05 -5.26325e-07)
(0.066552 -4.68169e-05 -5.26356e-07)
(0.0665524 -4.71571e-05 -5.26387e-07)
(0.0665528 -4.75023e-05 -5.26419e-07)
(0.0665533 -4.78527e-05 -5.26452e-07)
(0.0665537 -4.82082e-05 -5.26485e-07)
(0.0665542 -4.8569e-05 -5.26518e-07)
(0.0665547 -4.89353e-05 -5.26552e-07)
(0.0665551 -4.93072e-05 -5.26587e-07)
(0.0665556 -4.96847e-05 -5.26622e-07)
(0.0665561 -5.00681e-05 -5.26658e-07)
(0.0665566 -5.04574e-05 -5.26694e-07)
(0.0665571 -5.08528e-05 -5.26731e-07)
(0.0665576 -5.12545e-05 -5.26768e-07)
(0.0665581 -5.16626e-05 -5.26806e-07)
(0.0666159 -5.17026e-05 -3.39809e-10)
(0.0664974 -4.44184e-05 -5.26073e-07)
(0.0664975 -4.47255e-05 -5.26101e-07)
(0.0664975 -4.50367e-05 -5.26129e-07)
(0.0664975 -4.53524e-05 -5.26158e-07)
(0.0664975 -4.56725e-05 -5.26187e-07)
(0.0664976 -4.59971e-05 -5.26217e-07)
(0.0664976 -4.63264e-05 -5.26247e-07)
(0.0664976 -4.66605e-05 -5.26278e-07)
(0.0664977 -4.69994e-05 -5.26309e-07)
(0.0664977 -4.73432e-05 -5.2634e-07)
(0.0664977 -4.76922e-05 -5.26372e-07)
(0.0664978 -4.80463e-05 -5.26405e-07)
(0.0664978 -4.84057e-05 -5.26438e-07)
(0.0664979 -4.87705e-05 -5.26471e-07)
(0.0664979 -4.91409e-05 -5.26505e-07)
(0.0664979 -4.95169e-05 -5.26539e-07)
(0.066498 -4.98987e-05 -5.26574e-07)
(0.066498 -5.02865e-05 -5.2661e-07)
(0.0664981 -5.06804e-05 -5.26646e-07)
(0.0664981 -5.10804e-05 -5.26683e-07)
(0.0664981 -5.14869e-05 -5.2672e-07)
(0.066556 -5.15349e-05 -7.03752e-09)
)
;

boundaryField
{
    inlet
    {
        type            calculated;
        value           uniform (0.0741049 0 0);
    }
    outlet2
    {
        type            calculated;
        value           uniform (0.0741049 0 0);
    }
    outlet1
    {
        type            calculated;
        value           uniform (0.0741049 0 0);
    }
    wall
    {
        type            calculated;
        value           uniform (0.0741049 0 0);
    }
    symmetryBottom
    {
        type            symmetry;
    }
    symmetryZ0
    {
        type            symmetry;
    }
    symmetryZ05
    {
        type            symmetry;
    }
}


// ************************************************************************* //
