/*--------------------------------*- C++ -*----------------------------------*\
| =========                 |                                                 |
| \\      /  F ield         | OpenFOAM: The Open Source CFD Toolbox           |
|  \\    /   O peration     | Version:  2412                                  |
|   \\  /    A nd           | Website:  www.openfoam.com                      |
|    \\/     M anipulation  |                                                 |
\*---------------------------------------------------------------------------*/
FoamFile
{
    version     2.0;
    format      ascii;
    arch        "LSB;label=32;scalar=64";
    class       volVectorField;
    location    "8.31363e-07";
    object      rhoU_dof2;
}
// * * * * * * * * * * * * * * * * * * * * * * * * * * * * * * * * * * * * * //

dimensions      [0 0 0 0 0 0 0];

internalField   nonuniform List<vector> 
625
(
(6.00843e-06 -0.000137811 3.11837e-10)
(1.26001e-05 -0.000126002 3.41832e-10)
(-5.90084e-08 2.58301e-06 -0.000487547)
(-4.52101e-06 3.21588e-06 2.84171e-10)
(2.73652e-06 2.52355e-06 3.02179e-10)
(-2.53094e-07 2.58935e-06 -0.000487563)
(-1.0193e-06 2.86344e-06 3.02913e-10)
(5.99663e-06 2.19522e-06 3.26375e-10)
(-2.52816e-07 2.58931e-06 -0.000487554)
(-1.02956e-06 2.86447e-06 3.02882e-10)
(5.98695e-06 2.1962e-06 3.26331e-10)
(-2.52817e-07 2.58931e-06 -0.000487554)
(-1.02954e-06 2.86446e-06 3.02882e-10)
(5.98697e-06 2.19619e-06 3.26332e-10)
(-2.52817e-07 2.58931e-06 -0.000487554)
(-1.02954e-06 2.86446e-06 3.02882e-10)
(5.98697e-06 2.19619e-06 3.26332e-10)
(-2.52817e-07 2.58931e-06 -0.000487554)
(-1.02954e-06 2.86446e-06 3.02882e-10)
(5.98697e-06 2.19619e-06 3.26332e-10)
(-2.52817e-07 2.58931e-06 -0.000487554)
(-1.02954e-06 2.86446e-06 3.02882e-10)
(5.98697e-06 2.19619e-06 3.26332e-10)
(-2.52817e-07 2.58931e-06 -0.000487554)
(-1.02954e-06 2.86446e-06 3.02882e-10)
(5.98697e-06 2.19619e-06 3.26332e-10)
(-2.52817e-07 2.58931e-06 -0.000487554)
(-1.02954e-06 2.86446e-06 3.02882e-10)
(5.98697e-06 2.19619e-06 3.26332e-10)
(-2.52817e-07 2.58931e-06 -0.000487554)
(-1.02954e-06 2.86446e-06 3.02882e-10)
(5.98697e-06 2.19619e-06 3.26332e-10)
(-2.52817e-07 2.58931e-06 -0.000487554)
(-1.02954e-06 2.86446e-06 3.02882e-10)
(5.98697e-06 2.19619e-06 3.26332e-10)
(-2.52817e-07 2.58931e-06 -0.000487554)
(-1.02954e-06 2.86446e-06 3.02882e-10)
(5.98697e-06 2.19619e-06 3.26332e-10)
(-2.52817e-07 2.58931e-06 -0.000487554)
(-1.02954e-06 2.86446e-06 3.02882e-10)
(5.98697e-06 2.19619e-06 3.26332e-10)
(-2.52817e-07 2.58931e-06 -0.000487554)
(-1.02954e-06 2.86446e-06 3.02882e-10)
(5.98697e-06 2.19619e-06 3.26332e-10)
(-2.52817e-07 2.58931e-06 -0.000487554)
(-1.02954e-06 2.86446e-06 3.02882e-10)
(5.98697e-06 2.19619e-06 3.26332e-10)
(-2.52817e-07 2.58931e-06 -0.000487554)
(-1.02954e-06 2.86446e-06 3.02882e-10)
(5.98697e-06 2.19619e-06 3.26332e-10)
(-2.52817e-07 2.58931e-06 -0.000487554)
(-1.02954e-06 2.86446e-06 3.02882e-10)
(5.98697e-06 2.19619e-06 3.26332e-10)
(-2.52817e-07 2.58931e-06 -0.000487554)
(-1.02954e-06 2.86446e-06 3.02882e-10)
(5.98697e-06 2.19619e-06 3.26332e-10)
(-2.52817e-07 2.58931e-06 -0.000487554)
(-1.02954e-06 2.86446e-06 3.02882e-10)
(5.98697e-06 2.19619e-06 3.26332e-10)
(-2.52817e-07 2.58931e-06 -0.000487554)
(-1.02954e-06 2.86446e-06 3.02882e-10)
(5.98697e-06 2.19619e-06 3.26332e-10)
(-2.52817e-07 2.58931e-06 -0.000487554)
(-1.02954e-06 2.86446e-06 3.02882e-10)
(5.98697e-06 2.19619e-06 3.26332e-10)
(-2.52817e-07 2.58931e-06 -0.000487554)
(-1.02954e-06 2.86446e-06 3.02882e-10)
(5.98695e-06 2.1962e-06 3.26331e-10)
(-2.52486e-07 2.58928e-06 -0.000487554)
(-1.03068e-06 2.86458e-06 3.02798e-10)
(6.00442e-06 2.1949e-06 3.26244e-10)
(2.14291e-07 2.56029e-06 -0.000487555)
(-3.3998e-07 2.82027e-06 -1.40123e-12)
(-3.64796e-07 2.57393e-06 -1.90576e-12)
(-4.62424e-07 2.58372e-06 8.14822e-09)
(0.00404912 -0.000145769 7.34762e-11)
(0.00407688 -0.000146909 8.2747e-11)
(0.00410503 -0.000148067 9.22966e-11)
(0.00413357 -0.000149243 1.02135e-10)
(0.0041625 -0.000150438 1.12272e-10)
(0.00419185 -0.000151652 1.22718e-10)
(0.00422161 -0.000152885 1.33484e-10)
(0.0042518 -0.000154138 1.44582e-10)
(0.00428242 -0.000155412 1.56023e-10)
(0.00431349 -0.000156706 1.67821e-10)
(0.00434501 -0.000158022 1.79988e-10)
(0.00437699 -0.000159359 1.92539e-10)
(0.00440945 -0.00016072 2.05486e-10)
(0.00444239 -0.000162103 2.18845e-10)
(0.00447583 -0.00016351 2.32632e-10)
(0.00450977 -0.000164941 2.46862e-10)
(0.00454424 -0.000166397 2.61554e-10)
(0.00457923 -0.000167878 2.76724e-10)
(0.00461477 -0.000169386 2.92392e-10)
(0.00465086 -0.000170921 3.08577e-10)
(0.00468752 -0.000172483 3.25298e-10)
(1.61734e-08 2.83936e-06 -0.000534236)
(-0.000104302 -4.51111e-06 1.25387e-09)
(-0.000105354 -4.61359e-06 1.26288e-09)
(-0.000106426 -4.71836e-06 1.27203e-09)
(-0.000107517 -4.82549e-06 1.28131e-09)
(-0.000108628 -4.93506e-06 1.29072e-09)
(-0.000109761 -5.04714e-06 1.30027e-09)
(-0.000110915 -5.16181e-06 1.30997e-09)
(-0.000112091 -5.27914e-06 1.31981e-09)
(-0.000113289 -5.39922e-06 1.32979e-09)
(-0.000114512 -5.52215e-06 1.33993e-09)
(-0.000115757 -5.648e-06 1.35023e-09)
(-0.000117028 -5.77688e-06 1.36068e-09)
(-0.000118324 -5.90888e-06 1.3713e-09)
(-0.000119646 -6.0441e-06 1.38208e-09)
(-0.000120995 -6.18266e-06 1.39303e-09)
(-0.000122371 -6.32466e-06 1.40416e-09)
(-0.000123776 -6.47022e-06 1.41546e-09)
(-0.000125209 -6.61946e-06 1.42695e-09)
(-0.000126673 -6.77251e-06 1.43863e-09)
(-0.000128168 -6.92949e-06 1.45049e-09)
(-0.000129695 -7.09054e-06 1.46256e-09)
(-2.93775e-07 2.68438e-06 -0.000505723)
(-6.1507e-05 2.23902e-06 1.17055e-09)
(-6.19551e-05 2.23855e-06 1.17872e-09)
(-6.24098e-05 2.23812e-06 1.18701e-09)
(-6.28712e-05 2.23772e-06 1.19542e-09)
(-6.33394e-05 2.23736e-06 1.20395e-09)
(-6.38147e-05 2.23704e-06 1.2126e-09)
(-6.42971e-05 2.23676e-06 1.22138e-09)
(-6.47868e-05 2.23652e-06 1.23028e-09)
(-6.5284e-05 2.23633e-06 1.23932e-09)
(-6.57889e-05 2.23619e-06 1.24848e-09)
(-6.63017e-05 2.2361e-06 1.25779e-09)
(-6.68224e-05 2.23606e-06 1.26723e-09)
(-6.73514e-05 2.23607e-06 1.27682e-09)
(-6.78888e-05 2.23615e-06 1.28655e-09)
(-6.84348e-05 2.23628e-06 1.29643e-09)
(-6.89897e-05 2.23648e-06 1.30647e-09)
(-6.95535e-05 2.23675e-06 1.31666e-09)
(-7.01267e-05 2.23709e-06 1.32701e-09)
(-7.07093e-05 2.2375e-06 1.33753e-09)
(-7.13017e-05 2.23799e-06 1.34821e-09)
(-7.19039e-05 2.23857e-06 1.35907e-09)
(-2.96809e-07 2.68277e-06 -0.000505413)
(-6.20252e-05 2.16935e-06 1.12539e-09)
(-6.24753e-05 2.16742e-06 1.13326e-09)
(-6.29321e-05 2.16548e-06 1.14125e-09)
(-6.33956e-05 2.16354e-06 1.14934e-09)
(-6.38659e-05 2.16158e-06 1.15756e-09)
(-6.43433e-05 2.15963e-06 1.16589e-09)
(-6.48278e-05 2.15766e-06 1.17434e-09)
(-6.53196e-05 2.15569e-06 1.18292e-09)
(-6.5819e-05 2.15371e-06 1.19162e-09)
(-6.63259e-05 2.15172e-06 1.20045e-09)
(-6.68408e-05 2.14973e-06 1.20941e-09)
(-6.73637e-05 2.14774e-06 1.21851e-09)
(-6.78947e-05 2.14574e-06 1.22775e-09)
(-6.84343e-05 2.14373e-06 1.23712e-09)
(-6.89824e-05 2.14173e-06 1.24664e-09)
(-6.95393e-05 2.13971e-06 1.25631e-09)
(-7.01052e-05 2.1377e-06 1.26613e-09)
(-7.06805e-05 2.13568e-06 1.27611e-09)
(-7.12652e-05 2.13366e-06 1.28624e-09)
(-7.18596e-05 2.13164e-06 1.29653e-09)
(-7.2464e-05 2.12963e-06 1.307e-09)
(-2.96608e-07 2.68078e-06 -0.000505036)
(-6.25392e-05 2.16179e-06 1.07938e-09)
(-6.29915e-05 2.15976e-06 1.08693e-09)
(-6.34503e-05 2.15771e-06 1.09459e-09)
(-6.39159e-05 2.15565e-06 1.10235e-09)
(-6.43882e-05 2.15358e-06 1.11023e-09)
(-6.48677e-05 2.15151e-06 1.11822e-09)
(-6.53543e-05 2.14942e-06 1.12633e-09)
(-6.58482e-05 2.14733e-06 1.13455e-09)
(-6.63497e-05 2.14522e-06 1.1429e-09)
(-6.68588e-05 2.14311e-06 1.15137e-09)
(-6.73757e-05 2.14099e-06 1.15997e-09)
(-6.79007e-05 2.13886e-06 1.16869e-09)
(-6.8434e-05 2.13672e-06 1.17755e-09)
(-6.89756e-05 2.13458e-06 1.18654e-09)
(-6.95259e-05 2.13243e-06 1.19568e-09)
(-7.00849e-05 2.13027e-06 1.20495e-09)
(-7.06531e-05 2.12811e-06 1.21437e-09)
(-7.12304e-05 2.12594e-06 1.22394e-09)
(-7.18173e-05 2.12376e-06 1.23365e-09)
(-7.24139e-05 2.12159e-06 1.24353e-09)
(-7.30205e-05 2.11941e-06 1.25356e-09)
(-2.96433e-07 2.67881e-06 -0.00050466)
(-6.30628e-05 2.15393e-06 1.03338e-09)
(-6.35172e-05 2.15177e-06 1.04061e-09)
(-6.39782e-05 2.14961e-06 1.04794e-09)
(-6.44459e-05 2.14743e-06 1.05538e-09)
(-6.49205e-05 2.14523e-06 1.06292e-09)
(-6.54022e-05 2.14303e-06 1.07057e-09)
(-6.5891e-05 2.14081e-06 1.07833e-09)
(-6.63871e-05 2.13858e-06 1.08621e-09)
(-6.68909e-05 2.13634e-06 1.0942e-09)
(-6.74022e-05 2.13409e-06 1.10231e-09)
(-6.79214e-05 2.13182e-06 1.11054e-09)
(-6.84487e-05 2.12955e-06 1.11889e-09)
(-6.89841e-05 2.12726e-06 1.12737e-09)
(-6.95281e-05 2.12496e-06 1.13598e-09)
(-7.00806e-05 2.12266e-06 1.14473e-09)
(-7.0642e-05 2.12034e-06 1.15361e-09)
(-7.12124e-05 2.11801e-06 1.16262e-09)
(-7.17921e-05 2.11568e-06 1.17178e-09)
(-7.23812e-05 2.11333e-06 1.18109e-09)
(-7.29801e-05 2.11098e-06 1.19054e-09)
(-7.35889e-05 2.10861e-06 1.20015e-09)
(-2.96258e-07 2.67683e-06 -0.000504284)
(-6.35969e-05 2.14605e-06 9.87382e-10)
(-6.40536e-05 2.14378e-06 9.9429e-10)
(-6.45169e-05 2.14149e-06 1.0013e-09)
(-6.49871e-05 2.13919e-06 1.0084e-09)
(-6.5464e-05 2.13687e-06 1.01561e-09)
(-6.5948e-05 2.13454e-06 1.02292e-09)
(-6.64392e-05 2.13219e-06 1.03034e-09)
(-6.69378e-05 2.12982e-06 1.03786e-09)
(-6.74438e-05 2.12744e-06 1.0455e-09)
(-6.79576e-05 2.12505e-06 1.05325e-09)
(-6.84793e-05 2.12264e-06 1.06111e-09)
(-6.9009e-05 2.12022e-06 1.06909e-09)
(-6.95469e-05 2.11779e-06 1.0772e-09)
(-7.00933e-05 2.11534e-06 1.08543e-09)
(-7.06483e-05 2.11287e-06 1.09378e-09)
(-7.12122e-05 2.11039e-06 1.10227e-09)
(-7.1785e-05 2.1079e-06 1.11088e-09)
(-7.23672e-05 2.1054e-06 1.11964e-09)
(-7.29589e-05 2.10288e-06 1.12853e-09)
(-7.35603e-05 2.10035e-06 1.13756e-09)
(-7.41717e-05 2.09781e-06 1.14674e-09)
(-2.96083e-07 2.67486e-06 -0.000503909)
(-6.41416e-05 2.13816e-06 9.41388e-10)
(-6.46008e-05 2.13577e-06 9.47975e-10)
(-6.50667e-05 2.13336e-06 9.54656e-10)
(-6.55392e-05 2.13094e-06 9.61431e-10)
(-6.60187e-05 2.12849e-06 9.68303e-10)
(-6.65053e-05 2.12603e-06 9.75274e-10)
(-6.69989e-05 2.12355e-06 9.82345e-10)
(-6.75001e-05 2.12105e-06 9.89521e-10)
(-6.80087e-05 2.11853e-06 9.96801e-10)
(-6.85251e-05 2.116e-06 1.00419e-09)
(-6.90494e-05 2.11345e-06 1.01169e-09)
(-6.95817e-05 2.11088e-06 1.0193e-09)
(-7.01222e-05 2.10829e-06 1.02703e-09)
(-7.06713e-05 2.10569e-06 1.03487e-09)
(-7.1229e-05 2.10307e-06 1.04284e-09)
(-7.17955e-05 2.10043e-06 1.05093e-09)
(-7.23711e-05 2.09777e-06 1.05915e-09)
(-7.29559e-05 2.0951e-06 1.06749e-09)
(-7.35504e-05 2.09241e-06 1.07597e-09)
(-7.41545e-05 2.0897e-06 1.08458e-09)
(-7.47686e-05 2.08698e-06 1.09334e-09)
(-2.95908e-07 2.67288e-06 -0.000503534)
(-6.4697e-05 2.13026e-06 8.95399e-10)
(-6.51589e-05 2.12775e-06 9.01665e-10)
(-6.56273e-05 2.12522e-06 9.08019e-10)
(-6.61025e-05 2.12267e-06 9.14464e-10)
(-6.65847e-05 2.1201e-06 9.21001e-10)
(-6.70738e-05 2.11751e-06 9.27631e-10)
(-6.75703e-05 2.11489e-06 9.34359e-10)
(-6.80741e-05 2.11226e-06 9.41184e-10)
(-6.85855e-05 2.10961e-06 9.4811e-10)
(-6.91047e-05 2.10693e-06 9.55138e-10)
(-6.96317e-05 2.10424e-06 9.62271e-10)
(-7.01668e-05 2.10152e-06 9.69512e-10)
(-7.07102e-05 2.09878e-06 9.76863e-10)
(-7.1262e-05 2.09602e-06 9.84326e-10)
(-7.18226e-05 2.09324e-06 9.91903e-10)
(-7.2392e-05 2.09044e-06 9.99599e-10)
(-7.29705e-05 2.08762e-06 1.00741e-09)
(-7.35583e-05 2.08478e-06 1.01535e-09)
(-7.41556e-05 2.08192e-06 1.02342e-09)
(-7.47627e-05 2.07903e-06 1.03161e-09)
(-7.53798e-05 2.07612e-06 1.03994e-09)
(-2.95733e-07 2.67091e-06 -0.000503159)
(-6.52508e-05 2.12314e-06 8.48646e-10)
(-6.57153e-05 2.12051e-06 8.5458e-10)
(-6.61865e-05 2.11786e-06 8.60599e-10)
(-6.66645e-05 2.11518e-06 8.66702e-10)
(-6.71495e-05 2.11249e-06 8.72893e-10)
(-6.76416e-05 2.10976e-06 8.79172e-10)
(-6.81408e-05 2.10702e-06 8.85543e-10)
(-6.86476e-05 2.10425e-06 8.92007e-10)
(-6.91619e-05 2.10146e-06 8.98565e-10)
(-6.96839e-05 2.09865e-06 9.05502e-10)
(-7.02139e-05 2.09581e-06 9.12261e-10)
(-7.0752e-05 2.09295e-06 9.19122e-10)
(-7.12984e-05 2.09006e-06 9.26087e-10)
(-7.18533e-05 2.08715e-06 9.33159e-10)
(-7.24168e-05 2.08421e-06 9.40339e-10)
(-7.29893e-05 2.08125e-06 9.47631e-10)
(-7.35709e-05 2.07826e-06 9.55037e-10)
(-7.41618e-05 2.07525e-06 9.62559e-10)
(-7.47623e-05 2.07222e-06 9.70201e-10)
(-7.53725e-05 2.06915e-06 9.77965e-10)
(-7.59928e-05 2.06607e-06 9.85854e-10)
(-2.95372e-07 2.66895e-06 -0.000502784)
(-6.54726e-05 2.1371e-06 8.24625e-10)
(-6.59376e-05 2.13451e-06 8.30388e-10)
(-6.64091e-05 2.1319e-06 8.36234e-10)
(-6.68876e-05 2.12927e-06 8.42164e-10)
(-6.73729e-05 2.12662e-06 8.48178e-10)
(-6.78652e-05 2.12394e-06 8.54277e-10)
(-6.83649e-05 2.12123e-06 8.60464e-10)
(-6.8872e-05 2.11851e-06 8.66741e-10)
(-6.93866e-05 2.11575e-06 8.73111e-10)
(-6.9909e-05 2.11298e-06 8.79574e-10)
(-7.04392e-05 2.11018e-06 8.86134e-10)
(-7.09776e-05 2.10735e-06 8.92793e-10)
(-7.15243e-05 2.1045e-06 8.99553e-10)
(-7.20794e-05 2.10163e-06 9.06416e-10)
(-7.26432e-05 2.09873e-06 9.13384e-10)
(-7.32159e-05 2.0958e-06 9.2046e-10)
(-7.37976e-05 2.09285e-06 9.27647e-10)
(-7.43888e-05 2.08987e-06 9.34947e-10)
(-7.49894e-05 2.08687e-06 9.42363e-10)
(-7.55997e-05 2.08384e-06 9.49897e-10)
(-7.62202e-05 2.08078e-06 9.57555e-10)
(-2.9554e-07 2.66696e-06 -0.000502401)
(-6.56906e-05 2.15155e-06 8.00654e-10)
(-6.61558e-05 2.14903e-06 8.06248e-10)
(-6.66277e-05 2.14647e-06 8.1192e-10)
(-6.71062e-05 2.1439e-06 8.17673e-10)
(-6.75917e-05 2.1413e-06 8.23512e-10)
(-6.80843e-05 2.13868e-06 8.29432e-10)
(-6.85841e-05 2.13604e-06 8.35436e-10)
(-6.90913e-05 2.13337e-06 8.41528e-10)
(-6.9606e-05 2.13068e-06 8.47709e-10)
(-7.01284e-05 2.12796e-06 8.53982e-10)
(-7.06588e-05 2.12522e-06 8.60348e-10)
(-7.11973e-05 2.12246e-06 8.6681e-10)
(-7.17439e-05 2.11967e-06 8.7337e-10)
(-7.22991e-05 2.11685e-06 8.8003e-10)
(-7.28629e-05 2.11401e-06 8.86792e-10)
(-7.34355e-05 2.11115e-06 8.93659e-10)
(-7.40172e-05 2.10826e-06 9.00633e-10)
(-7.46082e-05 2.10534e-06 9.07717e-10)
(-7.52087e-05 2.1024e-06 9.14913e-10)
(-7.5819e-05 2.09943e-06 9.22225e-10)
(-7.64391e-05 2.09644e-06 9.29653e-10)
(-2.95872e-07 2.66494e-06 -0.000502018)
(-6.59131e-05 2.16635e-06 7.76748e-10)
(-6.63786e-05 2.16388e-06 7.82172e-10)
(-6.68506e-05 2.1614e-06 7.87672e-10)
(-6.73295e-05 2.15888e-06 7.9325e-10)
(-6.78152e-05 2.15635e-06 7.98914e-10)
(-6.83081e-05 2.15379e-06 8.04655e-10)
(-6.88081e-05 2.15121e-06 8.10477e-10)
(-6.93155e-05 2.14861e-06 8.16384e-10)
(-6.98304e-05 2.14598e-06 8.22378e-10)
(-7.03531e-05 2.14333e-06 8.28461e-10)
(-7.08835e-05 2.14066e-06 8.34634e-10)
(-7.14221e-05 2.13796e-06 8.409e-10)
(-7.1969e-05 2.13524e-06 8.4726e-10)
(-7.25241e-05 2.13249e-06 8.53718e-10)
(-7.3088e-05 2.12971e-06 8.60275e-10)
(-7.36607e-05 2.12692e-06 8.66933e-10)
(-7.42425e-05 2.12409e-06 8.73695e-10)
(-7.48334e-05 2.12124e-06 8.80564e-10)
(-7.54339e-05 2.11837e-06 8.87541e-10)
(-7.6044e-05 2.11547e-06 8.9463e-10)
(-7.66642e-05 2.11254e-06 9.01833e-10)
(-2.96176e-07 2.66293e-06 -0.000501636)
(-6.61399e-05 2.18149e-06 7.529e-10)
(-6.66058e-05 2.17909e-06 7.58155e-10)
(-6.70782e-05 2.17667e-06 7.63484e-10)
(-6.75574e-05 2.17422e-06 7.68889e-10)
(-6.80435e-05 2.17176e-06 7.74377e-10)
(-6.85366e-05 2.16927e-06 7.79941e-10)
(-6.9037e-05 2.16676e-06 7.85582e-10)
(-6.95446e-05 2.16423e-06 7.91305e-10)
(-7.00598e-05 2.16167e-06 7.97112e-10)
(-7.05827e-05 2.15909e-06 8.03004e-10)
(-7.11134e-05 2.15648e-06 8.08985e-10)
(-7.16522e-05 2.15386e-06 8.15055e-10)
(-7.21992e-05 2.1512e-06 8.21217e-10)
(-7.27546e-05 2.14853e-06 8.27474e-10)
(-7.33186e-05 2.14583e-06 8.33826e-10)
(-7.38915e-05 2.1431e-06 8.40276e-10)
(-7.44733e-05 2.14035e-06 8.46827e-10)
(-7.50644e-05 2.13757e-06 8.53481e-10)
(-7.56649e-05 2.13477e-06 8.6024e-10)
(-7.62751e-05 2.13195e-06 8.67107e-10)
(-7.68952e-05 2.12909e-06 8.74085e-10)
(-2.96479e-07 2.66091e-06 -0.000501253)
(-6.63712e-05 2.19696e-06 7.29112e-10)
(-6.68374e-05 2.19463e-06 7.34198e-10)
(-6.73103e-05 2.19228e-06 7.39357e-10)
(-6.77899e-05 2.18991e-06 7.44588e-10)
(-6.82764e-05 2.18752e-06 7.49902e-10)
(-6.87699e-05 2.18511e-06 7.55288e-10)
(-6.92706e-05 2.18267e-06 7.60749e-10)
(-6.97786e-05 2.18021e-06 7.66288e-10)
(-7.02942e-05 2.17773e-06 7.71909e-10)
(-7.08174e-05 2.17522e-06 7.77613e-10)
(-7.13484e-05 2.1727e-06 7.83401e-10)
(-7.18875e-05 2.17015e-06 7.89277e-10)
(-7.24348e-05 2.16757e-06 7.95241e-10)
(-7.29905e-05 2.16497e-06 8.01297e-10)
(-7.35547e-05 2.16235e-06 8.07445e-10)
(-7.41278e-05 2.1597e-06 8.13688e-10)
(-7.47098e-05 2.15703e-06 8.20028e-10)
(-7.5301e-05 2.15433e-06 8.26469e-10)
(-7.59017e-05 2.15161e-06 8.33011e-10)
(-7.6512e-05 2.14887e-06 8.39657e-10)
(-7.71322e-05 2.14609e-06 8.4641e-10)
(-2.96783e-07 2.6589e-06 -0.000500871)
(-6.66068e-05 2.21277e-06 7.05383e-10)
(-6.70736e-05 2.21052e-06 7.10302e-10)
(-6.75469e-05 2.20825e-06 7.1529e-10)
(-6.8027e-05 2.20596e-06 7.20349e-10)
(-6.85139e-05 2.20364e-06 7.25489e-10)
(-6.9008e-05 2.20131e-06 7.30699e-10)
(-6.9509e-05 2.19895e-06 7.35978e-10)
(-7.00175e-05 2.19657e-06 7.41335e-10)
(-7.05334e-05 2.19417e-06 7.4677e-10)
(-7.10571e-05 2.19174e-06 7.52286e-10)
(-7.15885e-05 2.18929e-06 7.57883e-10)
(-7.2128e-05 2.18682e-06 7.63565e-10)
(-7.26757e-05 2.18433e-06 7.69332e-10)
(-7.32316e-05 2.18182e-06 7.75187e-10)
(-7.37962e-05 2.17928e-06 7.81132e-10)
(-7.43696e-05 2.17671e-06 7.87169e-10)
(-7.49519e-05 2.17413e-06 7.933e-10)
(-7.55434e-05 2.17152e-06 7.99527e-10)
(-7.61444e-05 2.16888e-06 8.05853e-10)
(-7.67549e-05 2.16622e-06 8.12279e-10)
(-7.73754e-05 2.16354e-06 8.18809e-10)
(-2.97087e-07 2.65689e-06 -0.00050049)
(-6.68468e-05 2.22892e-06 6.81713e-10)
(-6.73141e-05 2.22675e-06 6.86465e-10)
(-6.77881e-05 2.22456e-06 6.91284e-10)
(-6.82686e-05 2.22235e-06 6.96171e-10)
(-6.87561e-05 2.22011e-06 7.01137e-10)
(-6.92506e-05 2.21786e-06 7.06171e-10)
(-6.97523e-05 2.21559e-06 7.11271e-10)
(-7.02612e-05 2.21329e-06 7.16445e-10)
(-7.07777e-05 2.21097e-06 7.21696e-10)
(-7.13018e-05 2.20864e-06 7.27024e-10)
(-7.18337e-05 2.20628e-06 7.32431e-10)
(-7.23736e-05 2.20389e-06 7.37919e-10)
(-7.29217e-05 2.20149e-06 7.4349e-10)
(-7.34782e-05 2.19906e-06 7.49146e-10)
(-7.40431e-05 2.19661e-06 7.54888e-10)
(-7.46169e-05 2.19414e-06 7.60719e-10)
(-7.51996e-05 2.19164e-06 7.66641e-10)
(-7.57915e-05 2.18912e-06 7.72656e-10)
(-7.63928e-05 2.18658e-06 7.78766e-10)
(-7.70037e-05 2.18402e-06 7.84974e-10)
(-7.76244e-05 2.18143e-06 7.91281e-10)
(-2.9739e-07 2.65488e-06 -0.000500108)
(-6.70912e-05 2.2454e-06 6.58103e-10)
(-6.75591e-05 2.24331e-06 6.62688e-10)
(-6.80336e-05 2.24121e-06 6.67338e-10)
(-6.85149e-05 2.23908e-06 6.72054e-10)
(-6.9003e-05 2.23694e-06 6.76846e-10)
(-6.9498e-05 2.23477e-06 6.81705e-10)
(-7.00003e-05 2.23259e-06 6.86626e-10)
(-7.05098e-05 2.23038e-06 6.91619e-10)
(-7.10268e-05 2.22815e-06 6.96685e-10)
(-7.15515e-05 2.22591e-06 7.01826e-10)
(-7.2084e-05 2.22364e-06 7.07044e-10)
(-7.26244e-05 2.22135e-06 7.12339e-10)
(-7.3173e-05 2.21904e-06 7.17715e-10)
(-7.373e-05 2.2167e-06 7.23172e-10)
(-7.42955e-05 2.21435e-06 7.28712e-10)
(-7.48698e-05 2.21197e-06 7.34339e-10)
(-7.54529e-05 2.20957e-06 7.40053e-10)
(-7.60453e-05 2.20715e-06 7.45856e-10)
(-7.6647e-05 2.20471e-06 7.51751e-10)
(-7.72583e-05 2.20224e-06 7.5774e-10)
(-7.78795e-05 2.19975e-06 7.63826e-10)
(-2.97693e-07 2.65287e-06 -0.000499727)
(-6.73399e-05 2.26221e-06 6.34552e-10)
(-6.78085e-05 2.26021e-06 6.38972e-10)
(-6.82837e-05 2.2582e-06 6.43453e-10)
(-6.87656e-05 2.25616e-06 6.47998e-10)
(-6.92543e-05 2.25411e-06 6.52616e-10)
(-6.97501e-05 2.25204e-06 6.57302e-10)
(-7.0253e-05 2.24994e-06 6.62045e-10)
(-7.07632e-05 2.24783e-06 6.66857e-10)
(-7.12809e-05 2.2457e-06 6.71739e-10)
(-7.18062e-05 2.24355e-06 6.76694e-10)
(-7.23393e-05 2.24138e-06 6.81722e-10)
(-7.28803e-05 2.23919e-06 6.86826e-10)
(-7.34295e-05 2.23697e-06 6.92006e-10)
(-7.39871e-05 2.23474e-06 6.97265e-10)
(-7.45532e-05 2.23249e-06 7.02605e-10)
(-7.5128e-05 2.23021e-06 7.08027e-10)
(-7.57118e-05 2.22792e-06 7.13534e-10)
(-7.63047e-05 2.2256e-06 7.19127e-10)
(-7.6907e-05 2.22326e-06 7.24808e-10)
(-7.75188e-05 2.2209e-06 7.3058e-10)
(-7.81404e-05 2.21852e-06 7.36444e-10)
(-2.97996e-07 2.65086e-06 -0.000499346)
(-6.75928e-05 2.27935e-06 6.11061e-10)
(-6.80623e-05 2.27745e-06 6.15315e-10)
(-6.85382e-05 2.27552e-06 6.19629e-10)
(-6.90208e-05 2.27358e-06 6.24003e-10)
(-6.95104e-05 2.27163e-06 6.28449e-10)
(-7.00068e-05 2.26965e-06 6.3296e-10)
(-7.05105e-05 2.26766e-06 6.37526e-10)
(-7.10214e-05 2.26564e-06 6.42158e-10)
(-7.15398e-05 2.26361e-06 6.46857e-10)
(-7.20658e-05 2.26156e-06 6.51626e-10)
(-7.25996e-05 2.25949e-06 6.56466e-10)
(-7.31414e-05 2.25741e-06 6.61378e-10)
(-7.36913e-05 2.2553e-06 6.66365e-10)
(-7.42495e-05 2.25317e-06 6.71427e-10)
(-7.48163e-05 2.25102e-06 6.76566e-10)
(-7.53918e-05 2.24886e-06 6.81785e-10)
(-7.59762e-05 2.24667e-06 6.87085e-10)
(-7.65698e-05 2.24446e-06 6.92468e-10)
(-7.71726e-05 2.24224e-06 6.97936e-10)
(-7.77851e-05 2.23999e-06 7.03491e-10)
(-7.84074e-05 2.23772e-06 7.09136e-10)
(-2.98298e-07 2.64886e-06 -0.000498965)
(-6.78501e-05 2.29682e-06 5.87629e-10)
(-6.83203e-05 2.29501e-06 5.91718e-10)
(-6.87971e-05 2.29319e-06 5.95865e-10)
(-6.92806e-05 2.29135e-06 6.0007e-10)
(-6.97709e-05 2.28949e-06 6.04342e-10)
(-7.02682e-05 2.28762e-06 6.08682e-10)
(-7.07726e-05 2.28573e-06 6.1307e-10)
(-7.12844e-05 2.28382e-06 6.17522e-10)
(-7.18036e-05 2.28189e-06 6.2204e-10)
(-7.23303e-05 2.27995e-06 6.26624e-10)
(-7.2865e-05 2.27799e-06 6.31276e-10)
(-7.34075e-05 2.27601e-06 6.35998e-10)
(-7.39582e-05 2.27401e-06 6.4079e-10)
(-7.45172e-05 2.27199e-06 6.45656e-10)
(-7.50848e-05 2.26996e-06 6.50596e-10)
(-7.5661e-05 2.2679e-06 6.55612e-10)
(-7.62462e-05 2.26583e-06 6.60707e-10)
(-7.68404e-05 2.26374e-06 6.6588e-10)
(-7.74441e-05 2.26163e-06 6.71136e-10)
(-7.80572e-05 2.2595e-06 6.76475e-10)
(-7.86802e-05 2.25736e-06 6.819e-10)
(-2.98599e-07 2.64685e-06 -0.000498585)
(-6.81117e-05 2.31461e-06 5.64257e-10)
(-6.85828e-05 2.3129e-06 5.68182e-10)
(-6.90604e-05 2.31118e-06 5.72162e-10)
(-6.95448e-05 2.30945e-06 5.76198e-10)
(-7.0036e-05 2.30769e-06 5.80297e-10)
(-7.05341e-05 2.30593e-06 5.84465e-10)
(-7.10395e-05 2.30414e-06 5.88677e-10)
(-7.15521e-05 2.30234e-06 5.92951e-10)
(-7.20721e-05 2.30053e-06 5.97286e-10)
(-7.25998e-05 2.2987e-06 6.01686e-10)
(-7.31353e-05 2.29685e-06 6.06151e-10)
(-7.36787e-05 2.29498e-06 6.10683e-10)
(-7.42303e-05 2.2931e-06 6.15283e-10)
(-7.47901e-05 2.2912e-06 6.19953e-10)
(-7.53585e-05 2.28928e-06 6.24694e-10)
(-7.59356e-05 2.28735e-06 6.29509e-10)
(-7.65216e-05 2.2854e-06 6.34398e-10)
(-7.71167e-05 2.28343e-06 6.39363e-10)
(-7.77212e-05 2.28145e-06 6.44408e-10)
(-7.83351e-05 2.27944e-06 6.49532e-10)
(-7.89589e-05 2.27742e-06 6.54738e-10)
(-2.989e-07 2.64485e-06 -0.000498204)
(-6.83776e-05 2.33272e-06 5.40944e-10)
(-6.88496e-05 2.33112e-06 5.44705e-10)
(-6.93282e-05 2.32951e-06 5.48519e-10)
(-6.98135e-05 2.32788e-06 5.52387e-10)
(-7.03056e-05 2.32624e-06 5.56314e-10)
(-7.08047e-05 2.32458e-06 5.6031e-10)
(-7.1311e-05 2.32291e-06 5.64347e-10)
(-7.18246e-05 2.32123e-06 5.68442e-10)
(-7.23456e-05 2.31953e-06 5.72597e-10)
(-7.28742e-05 2.31781e-06 5.76813e-10)
(-7.34106e-05 2.31608e-06 5.81092e-10)
(-7.3955e-05 2.31434e-06 5.85434e-10)
(-7.45075e-05 2.31257e-06 5.89842e-10)
(-7.50683e-05 2.3108e-06 5.94317e-10)
(-7.56376e-05 2.309e-06 5.9886e-10)
(-7.62156e-05 2.3072e-06 6.03474e-10)
(-7.68025e-05 2.30537e-06 6.08158e-10)
(-7.73986e-05 2.30353e-06 6.12917e-10)
(-7.80039e-05 2.30168e-06 6.1775e-10)
(-7.86189e-05 2.2998e-06 6.2266e-10)
(-7.92435e-05 2.29792e-06 6.27649e-10)
(-2.99201e-07 2.64285e-06 -0.000497824)
(-6.86316e-05 2.34996e-06 5.17586e-10)
(-6.91044e-05 2.34846e-06 5.21182e-10)
(-6.95838e-05 2.34694e-06 5.24829e-10)
(-7.00699e-05 2.34541e-06 5.28528e-10)
(-7.05628e-05 2.34387e-06 5.32279e-10)
(-7.10627e-05 2.34231e-06 5.36084e-10)
(-7.15697e-05 2.34074e-06 5.39943e-10)
(-7.20841e-05 2.33915e-06 5.43859e-10)
(-7.26058e-05 2.33755e-06 5.47831e-10)
(-7.31353e-05 2.33594e-06 5.5187e-10)
(-7.36724e-05 2.33431e-06 5.55972e-10)
(-7.42175e-05 2.33267e-06 5.60124e-10)
(-7.47708e-05 2.33102e-06 5.64339e-10)
(-7.53323e-05 2.32935e-06 5.68618e-10)
(-7.59024e-05 2.32767e-06 5.72962e-10)
(-7.64811e-05 2.32597e-06 5.77372e-10)
(-7.70688e-05 2.32425e-06 5.81852e-10)
(-7.76655e-05 2.32253e-06 5.86401e-10)
(-7.82716e-05 2.32078e-06 5.91022e-10)
(-7.88871e-05 2.31903e-06 5.95717e-10)
(-7.95125e-05 2.31725e-06 6.00486e-10)
(-2.99519e-07 2.64085e-06 -0.000497445)
(-7.45642e-05 2.70494e-06 1.53673e-10)
(-7.50774e-05 2.70581e-06 1.54732e-10)
(-7.55977e-05 2.7067e-06 1.55805e-10)
(-7.61252e-05 2.70761e-06 1.56893e-10)
(-7.66602e-05 2.70853e-06 1.57997e-10)
(-7.72027e-05 2.70948e-06 1.59116e-10)
(-7.7753e-05 2.71045e-06 1.60251e-10)
(-7.83112e-05 2.71144e-06 1.61402e-10)
(-7.88774e-05 2.71245e-06 1.6257e-10)
(-7.94519e-05 2.71348e-06 1.63756e-10)
(-8.00348e-05 2.71454e-06 1.64958e-10)
(-8.06264e-05 2.71562e-06 1.66179e-10)
(-8.12267e-05 2.71673e-06 1.67417e-10)
(-8.18361e-05 2.71786e-06 1.68674e-10)
(-8.24546e-05 2.71902e-06 1.6995e-10)
(-8.30826e-05 2.7202e-06 1.71246e-10)
(-8.37202e-05 2.72142e-06 1.72561e-10)
(-8.43677e-05 2.72266e-06 1.73897e-10)
(-8.50253e-05 2.72393e-06 1.75254e-10)
(-8.56932e-05 2.72524e-06 1.76632e-10)
(-8.63717e-05 2.72657e-06 1.78032e-10)
(-3.06948e-07 2.63975e-06 -0.000497192)
)
;

boundaryField
{
    inlet
    {
        type            calculated;
        value           uniform (0 0 0);
    }
    outlet2
    {
        type            calculated;
        value           uniform (0 0 0);
    }
    outlet1
    {
        type            calculated;
        value           uniform (0 0 0);
    }
    wall
    {
        type            calculated;
        value           uniform (0 0 0);
    }
    symmetryBottom
    {
        type            symmetry;
    }
    symmetryZ0
    {
        type            symmetry;
    }
    symmetryZ05
    {
        type            symmetry;
    }
}


// ************************************************************************* //
