/*--------------------------------*- C++ -*----------------------------------*\
| =========                 |                                                 |
| \\      /  F ield         | OpenFOAM: The Open Source CFD Toolbox           |
|  \\    /   O peration     | Version:  2412                                  |
|   \\  /    A nd           | Website:  www.openfoam.com                      |
|    \\/     M anipulation  |                                                 |
\*---------------------------------------------------------------------------*/
FoamFile
{
    version     2.0;
    format      ascii;
    arch        "LSB;label=32;scalar=64";
    class       volVectorField;
    location    "8.31363e-07";
    object      U;
}
// * * * * * * * * * * * * * * * * * * * * * * * * * * * * * * * * * * * * * //

dimensions      [0 0 0 0 0 0 0];

internalField   nonuniform List<vector> 
625
(
(2636.02 -0.00904622 0.0162409)
(2634.28 -0.0134488 0.0231568)
(2634.28 -0.0134675 0.000237785)
(2636.02 -1.70375 0.0162422)
(2634.28 -1.76198 0.0231581)
(2634.28 -1.76201 -3.6611e-05)
(2636.02 -1.69944 0.0162422)
(2634.28 -1.75757 0.0231582)
(2634.28 -1.75759 -3.23802e-05)
(2636.02 -1.69945 0.0162422)
(2634.28 -1.75758 0.0231582)
(2634.28 -1.7576 -3.23918e-05)
(2636.02 -1.69945 0.0162422)
(2634.28 -1.75758 0.0231582)
(2634.28 -1.7576 -3.23918e-05)
(2636.02 -1.69945 0.0162422)
(2634.28 -1.75758 0.0231582)
(2634.28 -1.7576 -3.23918e-05)
(2636.02 -1.69945 0.0162422)
(2634.28 -1.75758 0.0231582)
(2634.28 -1.7576 -3.23918e-05)
(2636.02 -1.69945 0.0162422)
(2634.28 -1.75758 0.0231582)
(2634.28 -1.7576 -3.23918e-05)
(2636.02 -1.69945 0.0162422)
(2634.28 -1.75758 0.0231582)
(2634.28 -1.7576 -3.23918e-05)
(2636.02 -1.69945 0.0162422)
(2634.28 -1.75758 0.0231582)
(2634.28 -1.7576 -3.23918e-05)
(2636.02 -1.69945 0.0162422)
(2634.28 -1.75758 0.0231582)
(2634.28 -1.7576 -3.23918e-05)
(2636.02 -1.69945 0.0162422)
(2634.28 -1.75758 0.0231582)
(2634.28 -1.7576 -3.23918e-05)
(2636.02 -1.69945 0.0162422)
(2634.28 -1.75758 0.0231582)
(2634.28 -1.7576 -3.23918e-05)
(2636.02 -1.69945 0.0162422)
(2634.28 -1.75758 0.0231582)
(2634.28 -1.7576 -3.23918e-05)
(2636.02 -1.69945 0.0162422)
(2634.28 -1.75758 0.0231582)
(2634.28 -1.7576 -3.23918e-05)
(2636.02 -1.69945 0.0162422)
(2634.28 -1.75758 0.0231582)
(2634.28 -1.7576 -3.23918e-05)
(2636.02 -1.69945 0.0162422)
(2634.28 -1.75758 0.0231582)
(2634.28 -1.7576 -3.23918e-05)
(2636.02 -1.69945 0.0162422)
(2634.28 -1.75758 0.0231582)
(2634.28 -1.7576 -3.23918e-05)
(2636.02 -1.69945 0.0162422)
(2634.28 -1.75758 0.0231582)
(2634.28 -1.7576 -3.23918e-05)
(2636.02 -1.69945 0.0162422)
(2634.28 -1.75758 0.0231582)
(2634.28 -1.7576 -3.23918e-05)
(2636.02 -1.69945 0.0162422)
(2634.28 -1.75758 0.0231582)
(2634.28 -1.7576 -3.23918e-05)
(2636.02 -1.69945 0.0162422)
(2634.28 -1.75758 0.0231582)
(2634.28 -1.7576 -3.23918e-05)
(2636.02 -1.69945 0.0162422)
(2634.28 -1.75758 0.0231582)
(2634.28 -1.7576 -3.22782e-05)
(2636.02 -1.69944 0.0162423)
(2634.28 -1.7576 0.0231582)
(2634.28 -1.75773 -0.000113599)
(2636.02 -1.69859 0.016253)
(2634.28 -1.75252 0.0231707)
(2634.28 -1.75266 0.0230193)
(2626.83 0.264537 0.0245896)
(2626.76 0.268519 0.0246022)
(2626.69 0.27259 0.024615)
(2626.61 0.276753 0.024628)
(2626.54 0.281012 0.0246412)
(2626.47 0.285367 0.0246547)
(2626.39 0.289823 0.0246684)
(2626.32 0.294383 0.0246823)
(2626.24 0.29905 0.0246964)
(2626.16 0.303827 0.0247108)
(2626.08 0.308718 0.0247254)
(2625.99 0.313727 0.0247403)
(2625.91 0.318856 0.0247555)
(2625.82 0.324111 0.0247709)
(2625.74 0.329494 0.0247866)
(2625.65 0.335011 0.0248026)
(2625.56 0.340666 0.0248189)
(2625.46 0.346464 0.0248355)
(2625.37 0.352409 0.0248523)
(2625.27 0.358505 0.0248696)
(2625.17 0.36476 0.0248871)
(2625.19 0.366722 0.00180192)
(2634.99 -1.67607 0.0232063)
(2634.99 -1.68692 0.0232071)
(2635 -1.6979 0.023208)
(2635 -1.70903 0.0232088)
(2635 -1.7203 0.0232097)
(2635.01 -1.73172 0.0232106)
(2635.01 -1.74329 0.0232115)
(2635.01 -1.75502 0.0232124)
(2635.01 -1.7669 0.0232133)
(2635.02 -1.77893 0.0232142)
(2635.02 -1.79113 0.0232152)
(2635.02 -1.8035 0.0232161)
(2635.02 -1.81603 0.0232171)
(2635.03 -1.82874 0.023218)
(2635.03 -1.84162 0.023219)
(2635.03 -1.85469 0.02322)
(2635.04 -1.86793 0.023221)
(2635.04 -1.88136 0.0232221)
(2635.04 -1.89499 0.0232231)
(2635.05 -1.9088 0.0232241)
(2635.05 -1.92282 0.0232252)
(2635.06 -1.92279 -0.00019953)
(2634.94 -1.76426 0.023229)
(2634.94 -1.77643 0.0232301)
(2634.94 -1.78877 0.0232312)
(2634.95 -1.80128 0.0232324)
(2634.95 -1.81396 0.0232336)
(2634.95 -1.82683 0.0232348)
(2634.95 -1.83988 0.023236)
(2634.95 -1.85312 0.0232372)
(2634.95 -1.86655 0.0232384)
(2634.96 -1.88018 0.0232397)
(2634.96 -1.89401 0.023241)
(2634.96 -1.90804 0.0232423)
(2634.96 -1.92228 0.0232436)
(2634.97 -1.93674 0.0232449)
(2634.97 -1.95141 0.0232463)
(2634.97 -1.96631 0.0232477)
(2634.97 -1.98144 0.0232491)
(2634.97 -1.99681 0.0232505)
(2634.98 -2.01241 0.023252)
(2634.98 -2.02826 0.0232534)
(2634.98 -2.04436 0.0232549)
(2634.99 -2.04426 -0.0001486)
(2634.93 -1.76371 0.0232337)
(2634.93 -1.77586 0.0232349)
(2634.93 -1.78819 0.0232361)
(2634.93 -1.80068 0.0232373)
(2634.94 -1.81336 0.0232385)
(2634.94 -1.82621 0.0232397)
(2634.94 -1.83924 0.0232409)
(2634.94 -1.85246 0.0232422)
(2634.94 -1.86588 0.0232435)
(2634.94 -1.87949 0.0232448)
(2634.95 -1.89329 0.0232461)
(2634.95 -1.90731 0.0232474)
(2634.95 -1.92153 0.0232488)
(2634.95 -1.93597 0.0232502)
(2634.95 -1.95062 0.0232515)
(2634.96 -1.9655 0.023253)
(2634.96 -1.98061 0.0232544)
(2634.96 -1.99595 0.0232559)
(2634.96 -2.01153 0.0232574)
(2634.97 -2.02735 0.0232589)
(2634.97 -2.04343 0.0232604)
(2634.98 -2.04332 -0.000145449)
(2634.92 -1.76397 0.0232386)
(2634.92 -1.77612 0.0232398)
(2634.92 -1.78845 0.023241)
(2634.92 -1.80095 0.0232422)
(2634.92 -1.81363 0.0232434)
(2634.92 -1.82648 0.0232447)
(2634.93 -1.83952 0.023246)
(2634.93 -1.85275 0.0232473)
(2634.93 -1.86616 0.0232486)
(2634.93 -1.87978 0.0232499)
(2634.93 -1.89359 0.0232513)
(2634.94 -1.90761 0.0232526)
(2634.94 -1.92184 0.023254)
(2634.94 -1.93628 0.0232555)
(2634.94 -1.95094 0.0232569)
(2634.94 -1.96582 0.0232583)
(2634.95 -1.98093 0.0232598)
(2634.95 -1.99628 0.0232613)
(2634.95 -2.01186 0.0232629)
(2634.95 -2.02769 0.0232644)
(2634.95 -2.04378 0.023266)
(2634.97 -2.04366 -0.00014227)
(2634.9 -1.76422 0.0232434)
(2634.91 -1.77638 0.0232446)
(2634.91 -1.78871 0.0232459)
(2634.91 -1.80121 0.0232471)
(2634.91 -1.81389 0.0232484)
(2634.91 -1.82675 0.0232497)
(2634.91 -1.83979 0.023251)
(2634.92 -1.85302 0.0232523)
(2634.92 -1.86645 0.0232537)
(2634.92 -1.88006 0.0232551)
(2634.92 -1.89388 0.0232565)
(2634.92 -1.9079 0.0232579)
(2634.92 -1.92213 0.0232593)
(2634.93 -1.93658 0.0232608)
(2634.93 -1.95124 0.0232622)
(2634.93 -1.96613 0.0232637)
(2634.93 -1.98125 0.0232653)
(2634.93 -1.9966 0.0232668)
(2634.94 -2.01219 0.0232684)
(2634.94 -2.02803 0.02327)
(2634.94 -2.04411 0.0232716)
(2634.95 -2.044 -0.00013909)
(2634.89 -1.76447 0.0232482)
(2634.89 -1.77664 0.0232495)
(2634.9 -1.78897 0.0232508)
(2634.9 -1.80148 0.023252)
(2634.9 -1.81416 0.0232534)
(2634.9 -1.82702 0.0232547)
(2634.9 -1.84007 0.023256)
(2634.9 -1.8533 0.0232574)
(2634.9 -1.86673 0.0232588)
(2634.91 -1.88035 0.0232602)
(2634.91 -1.89417 0.0232616)
(2634.91 -1.9082 0.0232631)
(2634.91 -1.92243 0.0232646)
(2634.91 -1.93688 0.0232661)
(2634.92 -1.95155 0.0232676)
(2634.92 -1.96644 0.0232691)
(2634.92 -1.98157 0.0232707)
(2634.92 -1.99692 0.0232723)
(2634.92 -2.01252 0.0232739)
(2634.92 -2.02836 0.0232755)
(2634.93 -2.04445 0.0232772)
(2634.94 -2.04433 -0.00013591)
(2634.88 -1.76472 0.0232531)
(2634.88 -1.77689 0.0232543)
(2634.88 -1.78923 0.0232557)
(2634.88 -1.80174 0.023257)
(2634.89 -1.81443 0.0232583)
(2634.89 -1.82729 0.0232597)
(2634.89 -1.84034 0.0232611)
(2634.89 -1.85358 0.0232625)
(2634.89 -1.86701 0.0232639)
(2634.89 -1.88064 0.0232654)
(2634.9 -1.89446 0.0232668)
(2634.9 -1.90849 0.0232683)
(2634.9 -1.92273 0.0232698)
(2634.9 -1.93719 0.0232714)
(2634.9 -1.95186 0.0232729)
(2634.9 -1.96676 0.0232745)
(2634.91 -1.98188 0.0232761)
(2634.91 -1.99725 0.0232777)
(2634.91 -2.01285 0.0232794)
(2634.91 -2.02869 0.0232811)
(2634.91 -2.04479 0.0232828)
(2634.93 -2.04467 -0.00013273)
(2634.87 -1.76498 0.0232579)
(2634.87 -1.77715 0.0232592)
(2634.87 -1.78949 0.0232606)
(2634.87 -1.802 0.0232619)
(2634.87 -1.81469 0.0232633)
(2634.88 -1.82756 0.0232647)
(2634.88 -1.84062 0.0232661)
(2634.88 -1.85386 0.0232676)
(2634.88 -1.86729 0.023269)
(2634.88 -1.88092 0.0232705)
(2634.88 -1.89475 0.023272)
(2634.88 -1.90879 0.0232735)
(2634.89 -1.92303 0.0232751)
(2634.89 -1.93749 0.0232767)
(2634.89 -1.95217 0.0232783)
(2634.89 -1.96707 0.0232799)
(2634.89 -1.9822 0.0232815)
(2634.89 -1.99757 0.0232832)
(2634.9 -2.01317 0.0232849)
(2634.9 -2.02903 0.0232866)
(2634.9 -2.04513 0.0232884)
(2634.91 -2.045 -0.000129554)
(2634.86 -1.76522 0.0232627)
(2634.86 -1.77739 0.023264)
(2634.86 -1.78974 0.0232654)
(2634.86 -1.80226 0.0232668)
(2634.86 -1.81495 0.0232682)
(2634.86 -1.82782 0.0232697)
(2634.86 -1.84088 0.0232711)
(2634.87 -1.85413 0.0232726)
(2634.87 -1.86756 0.0232741)
(2634.87 -1.8812 0.0232756)
(2634.87 -1.89503 0.0232772)
(2634.87 -1.90907 0.0232787)
(2634.87 -1.92332 0.0232803)
(2634.87 -1.93778 0.0232819)
(2634.88 -1.95247 0.0232836)
(2634.88 -1.96737 0.0232852)
(2634.88 -1.98251 0.0232869)
(2634.88 -1.99788 0.0232886)
(2634.88 -2.01349 0.0232904)
(2634.88 -2.02935 0.0232922)
(2634.88 -2.04546 0.023294)
(2634.9 -2.04533 -0.00012591)
(2634.84 -1.76518 0.0232667)
(2634.85 -1.77736 0.0232681)
(2634.85 -1.7897 0.0232695)
(2634.85 -1.80222 0.0232709)
(2634.85 -1.81492 0.0232723)
(2634.85 -1.82779 0.0232738)
(2634.85 -1.84085 0.0232753)
(2634.85 -1.8541 0.0232768)
(2634.85 -1.86754 0.0232783)
(2634.86 -1.88118 0.0232799)
(2634.86 -1.89501 0.0232815)
(2634.86 -1.90905 0.0232831)
(2634.86 -1.9233 0.0232847)
(2634.86 -1.93777 0.0232863)
(2634.86 -1.95245 0.023288)
(2634.86 -1.96736 0.0232897)
(2634.87 -1.9825 0.0232914)
(2634.87 -1.99787 0.0232932)
(2634.87 -2.01349 0.023295)
(2634.87 -2.02935 0.0232968)
(2634.87 -2.04546 0.0232986)
(2634.88 -2.04531 -0.000105371)
(2634.83 -1.76514 0.0232707)
(2634.83 -1.77732 0.0232721)
(2634.83 -1.78967 0.0232735)
(2634.84 -1.80219 0.023275)
(2634.84 -1.81488 0.0232765)
(2634.84 -1.82776 0.023278)
(2634.84 -1.84082 0.0232795)
(2634.84 -1.85407 0.023281)
(2634.84 -1.86751 0.0232826)
(2634.84 -1.88115 0.0232842)
(2634.84 -1.89499 0.0232858)
(2634.85 -1.90903 0.0232874)
(2634.85 -1.92328 0.0232891)
(2634.85 -1.93775 0.0232907)
(2634.85 -1.95244 0.0232925)
(2634.85 -1.96735 0.0232942)
(2634.85 -1.98249 0.0232959)
(2634.85 -1.99787 0.0232977)
(2634.85 -2.01348 0.0232995)
(2634.86 -2.02934 0.0233014)
(2634.86 -2.04546 0.0233033)
(2634.87 -2.04531 -0.000103548)
(2634.82 -1.7651 0.0232747)
(2634.82 -1.77728 0.0232762)
(2634.82 -1.78963 0.0232776)
(2634.82 -1.80215 0.0232791)
(2634.82 -1.81485 0.0232806)
(2634.83 -1.82773 0.0232821)
(2634.83 -1.84079 0.0232837)
(2634.83 -1.85404 0.0232852)
(2634.83 -1.86748 0.0232868)
(2634.83 -1.88112 0.0232885)
(2634.83 -1.89496 0.0232901)
(2634.83 -1.90901 0.0232918)
(2634.83 -1.92326 0.0232934)
(2634.83 -1.93773 0.0232952)
(2634.84 -1.95242 0.0232969)
(2634.84 -1.96733 0.0232987)
(2634.84 -1.98247 0.0233005)
(2634.84 -1.99785 0.0233023)
(2634.84 -2.01347 0.0233041)
(2634.84 -2.02933 0.023306)
(2634.84 -2.04545 0.0233079)
(2634.86 -2.0453 -0.000101821)
(2634.81 -1.76505 0.0232787)
(2634.81 -1.77723 0.0232802)
(2634.81 -1.78958 0.0232817)
(2634.81 -1.8021 0.0232832)
(2634.81 -1.8148 0.0232847)
(2634.81 -1.82768 0.0232863)
(2634.81 -1.84075 0.0232879)
(2634.82 -1.854 0.0232895)
(2634.82 -1.86744 0.0232911)
(2634.82 -1.88109 0.0232927)
(2634.82 -1.89493 0.0232944)
(2634.82 -1.90897 0.0232961)
(2634.82 -1.92323 0.0232978)
(2634.82 -1.9377 0.0232996)
(2634.82 -1.95239 0.0233013)
(2634.82 -1.96731 0.0233031)
(2634.82 -1.98245 0.023305)
(2634.83 -1.99783 0.0233068)
(2634.83 -2.01345 0.0233087)
(2634.83 -2.02932 0.0233106)
(2634.83 -2.04544 0.0233126)
(2634.84 -2.04529 -0.000100097)
(2634.8 -1.765 0.0232828)
(2634.8 -1.77718 0.0232843)
(2634.8 -1.78953 0.0232858)
(2634.8 -1.80206 0.0232873)
(2634.8 -1.81476 0.0232889)
(2634.8 -1.82764 0.0232905)
(2634.8 -1.8407 0.0232921)
(2634.8 -1.85396 0.0232937)
(2634.8 -1.8674 0.0232953)
(2634.8 -1.88105 0.023297)
(2634.81 -1.89489 0.0232987)
(2634.81 -1.90894 0.0233005)
(2634.81 -1.9232 0.0233022)
(2634.81 -1.93767 0.023304)
(2634.81 -1.95236 0.0233058)
(2634.81 -1.96728 0.0233076)
(2634.81 -1.98243 0.0233095)
(2634.81 -1.99781 0.0233114)
(2634.81 -2.01343 0.0233133)
(2634.81 -2.0293 0.0233153)
(2634.82 -2.04542 0.0233172)
(2634.83 -2.04527 -9.83781e-05)
(2634.78 -1.76494 0.0232868)
(2634.79 -1.77712 0.0232883)
(2634.79 -1.78948 0.0232898)
(2634.79 -1.802 0.0232914)
(2634.79 -1.8147 0.023293)
(2634.79 -1.82759 0.0232946)
(2634.79 -1.84065 0.0232963)
(2634.79 -1.85391 0.0232979)
(2634.79 -1.86736 0.0232996)
(2634.79 -1.881 0.0233013)
(2634.79 -1.89485 0.023303)
(2634.79 -1.9089 0.0233048)
(2634.79 -1.92316 0.0233066)
(2634.8 -1.93763 0.0233084)
(2634.8 -1.95233 0.0233102)
(2634.8 -1.96724 0.0233121)
(2634.8 -1.98239 0.023314)
(2634.8 -1.99778 0.0233159)
(2634.8 -2.0134 0.0233179)
(2634.8 -2.02927 0.0233199)
(2634.8 -2.0454 0.0233219)
(2634.82 -2.04525 -9.66629e-05)
(2634.77 -1.76488 0.0232908)
(2634.77 -1.77706 0.0232923)
(2634.77 -1.78942 0.0232939)
(2634.78 -1.80194 0.0232955)
(2634.78 -1.81465 0.0232971)
(2634.78 -1.82753 0.0232988)
(2634.78 -1.8406 0.0233005)
(2634.78 -1.85386 0.0233021)
(2634.78 -1.86731 0.0233039)
(2634.78 -1.88095 0.0233056)
(2634.78 -1.8948 0.0233074)
(2634.78 -1.90885 0.0233092)
(2634.78 -1.92311 0.023311)
(2634.78 -1.93759 0.0233128)
(2634.78 -1.95228 0.0233147)
(2634.78 -1.96721 0.0233166)
(2634.78 -1.98236 0.0233185)
(2634.79 -1.99774 0.0233205)
(2634.79 -2.01337 0.0233225)
(2634.79 -2.02924 0.0233245)
(2634.79 -2.04537 0.0233266)
(2634.8 -2.04522 -9.49517e-05)
(2634.76 -1.76481 0.0232948)
(2634.76 -1.777 0.0232964)
(2634.76 -1.78935 0.023298)
(2634.76 -1.80188 0.0232996)
(2634.76 -1.81459 0.0233013)
(2634.76 -1.82747 0.023303)
(2634.76 -1.84054 0.0233046)
(2634.77 -1.8538 0.0233064)
(2634.77 -1.86725 0.0233081)
(2634.77 -1.8809 0.0233099)
(2634.77 -1.89475 0.0233117)
(2634.77 -1.9088 0.0233135)
(2634.77 -1.92306 0.0233154)
(2634.77 -1.93754 0.0233172)
(2634.77 -1.95224 0.0233191)
(2634.77 -1.96716 0.0233211)
(2634.77 -1.98231 0.0233231)
(2634.77 -1.9977 0.0233251)
(2634.77 -2.01333 0.0233271)
(2634.77 -2.0292 0.0233291)
(2634.77 -2.04533 0.0233312)
(2634.79 -2.04519 -9.32447e-05)
(2634.75 -1.76474 0.0232988)
(2634.75 -1.77693 0.0233004)
(2634.75 -1.78929 0.0233021)
(2634.75 -1.80182 0.0233037)
(2634.75 -1.81452 0.0233054)
(2634.75 -1.82741 0.0233071)
(2634.75 -1.84048 0.0233088)
(2634.75 -1.85374 0.0233106)
(2634.75 -1.86719 0.0233124)
(2634.75 -1.88084 0.0233142)
(2634.75 -1.89469 0.023316)
(2634.76 -1.90874 0.0233179)
(2634.76 -1.92301 0.0233197)
(2634.76 -1.93749 0.0233217)
(2634.76 -1.95219 0.0233236)
(2634.76 -1.96711 0.0233256)
(2634.76 -1.98226 0.0233276)
(2634.76 -1.99765 0.0233296)
(2634.76 -2.01328 0.0233317)
(2634.76 -2.02916 0.0233338)
(2634.76 -2.04529 0.0233359)
(2634.77 -2.04515 -9.15417e-05)
(2634.74 -1.76467 0.0233029)
(2634.74 -1.77686 0.0233045)
(2634.74 -1.78921 0.0233062)
(2634.74 -1.80175 0.0233078)
(2634.74 -1.81445 0.0233096)
(2634.74 -1.82734 0.0233113)
(2634.74 -1.84041 0.023313)
(2634.74 -1.85367 0.0233148)
(2634.74 -1.86713 0.0233166)
(2634.74 -1.88078 0.0233185)
(2634.74 -1.89463 0.0233203)
(2634.74 -1.90868 0.0233222)
(2634.74 -1.92295 0.0233241)
(2634.74 -1.93743 0.0233261)
(2634.74 -1.95213 0.0233281)
(2634.74 -1.96706 0.0233301)
(2634.74 -1.98221 0.0233321)
(2634.75 -1.9976 0.0233342)
(2634.75 -2.01323 0.0233363)
(2634.75 -2.02911 0.0233384)
(2634.75 -2.04524 0.0233406)
(2634.76 -2.0451 -8.98428e-05)
(2634.73 -1.76459 0.0233069)
(2634.73 -1.77678 0.0233086)
(2634.73 -1.78914 0.0233102)
(2634.73 -1.80167 0.023312)
(2634.73 -1.81438 0.0233137)
(2634.73 -1.82727 0.0233155)
(2634.73 -1.84034 0.0233172)
(2634.73 -1.8536 0.0233191)
(2634.73 -1.86706 0.0233209)
(2634.73 -1.88071 0.0233228)
(2634.73 -1.89456 0.0233247)
(2634.73 -1.90862 0.0233266)
(2634.73 -1.92288 0.0233285)
(2634.73 -1.93737 0.0233305)
(2634.73 -1.95207 0.0233325)
(2634.73 -1.967 0.0233346)
(2634.73 -1.98215 0.0233366)
(2634.73 -1.99755 0.0233387)
(2634.73 -2.01318 0.0233409)
(2634.73 -2.02906 0.023343)
(2634.73 -2.04519 0.0233452)
(2634.75 -2.04505 -8.8148e-05)
(2634.71 -1.76451 0.0233109)
(2634.71 -1.7767 0.0233126)
(2634.71 -1.78906 0.0233143)
(2634.71 -1.80159 0.0233161)
(2634.71 -1.8143 0.0233178)
(2634.71 -1.82719 0.0233196)
(2634.71 -1.84026 0.0233214)
(2634.72 -1.85353 0.0233233)
(2634.72 -1.86698 0.0233252)
(2634.72 -1.88063 0.023327)
(2634.72 -1.89449 0.023329)
(2634.72 -1.90855 0.0233309)
(2634.72 -1.92281 0.0233329)
(2634.72 -1.9373 0.0233349)
(2634.72 -1.952 0.023337)
(2634.72 -1.96693 0.023339)
(2634.72 -1.98209 0.0233411)
(2634.72 -1.99748 0.0233433)
(2634.72 -2.01312 0.0233455)
(2634.72 -2.029 0.0233477)
(2634.72 -2.04513 0.0233499)
(2634.73 -2.045 -8.64574e-05)
(2634.7 -1.76442 0.0233149)
(2634.7 -1.77661 0.0233167)
(2634.7 -1.78897 0.0233184)
(2634.7 -1.80151 0.0233202)
(2634.7 -1.81422 0.023322)
(2634.7 -1.82711 0.0233238)
(2634.7 -1.84018 0.0233256)
(2634.7 -1.85345 0.0233275)
(2634.7 -1.8669 0.0233294)
(2634.7 -1.88056 0.0233313)
(2634.7 -1.89441 0.0233333)
(2634.7 -1.90847 0.0233353)
(2634.7 -1.92274 0.0233373)
(2634.7 -1.93723 0.0233393)
(2634.7 -1.95193 0.0233414)
(2634.7 -1.96686 0.0233435)
(2634.7 -1.98202 0.0233457)
(2634.7 -1.99742 0.0233478)
(2634.7 -2.01305 0.0233501)
(2634.71 -2.02894 0.0233523)
(2634.71 -2.04507 0.0233546)
(2634.72 -2.04493 -8.47712e-05)
(2634.69 -1.76435 0.023319)
(2634.69 -1.77654 0.0233207)
(2634.69 -1.7889 0.0233225)
(2634.69 -1.80144 0.0233243)
(2634.69 -1.81415 0.0233261)
(2634.69 -1.82704 0.023328)
(2634.69 -1.84011 0.0233299)
(2634.69 -1.85338 0.0233318)
(2634.69 -1.86684 0.0233337)
(2634.69 -1.88049 0.0233357)
(2634.69 -1.89435 0.0233376)
(2634.69 -1.90841 0.0233397)
(2634.69 -1.92268 0.0233417)
(2634.69 -1.93717 0.0233438)
(2634.69 -1.95187 0.0233459)
(2634.69 -1.9668 0.023348)
(2634.69 -1.98197 0.0233502)
(2634.69 -1.99736 0.0233524)
(2634.69 -2.013 0.0233547)
(2634.69 -2.02889 0.023357)
(2634.69 -2.04502 0.0233593)
(2634.71 -2.04489 -8.27549e-05)
(2634.68 -1.75986 0.0233357)
(2634.68 -1.77202 0.0233376)
(2634.68 -1.78435 0.0233395)
(2634.68 -1.79686 0.0233414)
(2634.68 -1.80954 0.0233434)
(2634.68 -1.8224 0.0233453)
(2634.68 -1.83544 0.0233473)
(2634.68 -1.84868 0.0233494)
(2634.68 -1.8621 0.0233514)
(2634.68 -1.87573 0.0233535)
(2634.68 -1.88955 0.0233556)
(2634.68 -1.90358 0.0233578)
(2634.68 -1.91782 0.02336)
(2634.68 -1.93227 0.0233622)
(2634.68 -1.94694 0.0233645)
(2634.68 -1.96184 0.0233668)
(2634.68 -1.97697 0.0233691)
(2634.68 -1.99233 0.0233714)
(2634.68 -2.00793 0.0233738)
(2634.68 -2.02378 0.0233763)
(2634.68 -2.03988 0.0233787)
(2634.69 -2.04007 -0.000352369)
)
;

boundaryField
{
    inlet
    {
        type            calculated;
        value           uniform (0 0 0);
    }
    outlet2
    {
        type            calculated;
        value           uniform (0 0 0);
    }
    outlet1
    {
        type            calculated;
        value           uniform (0 0 0);
    }
    wall
    {
        type            calculated;
        value           uniform (0 0 0);
    }
    symmetryBottom
    {
        type            symmetry;
    }
    symmetryZ0
    {
        type            symmetry;
    }
    symmetryZ05
    {
        type            symmetry;
    }
}


// ************************************************************************* //
