/*--------------------------------*- C++ -*----------------------------------*\
| =========                 |                                                 |
| \\      /  F ield         | OpenFOAM: The Open Source CFD Toolbox           |
|  \\    /   O peration     | Version:  2412                                  |
|   \\  /    A nd           | Website:  www.openfoam.com                      |
|    \\/     M anipulation  |                                                 |
\*---------------------------------------------------------------------------*/
FoamFile
{
    version     2.0;
    format      ascii;
    arch        "LSB;label=32;scalar=64";
    class       volScalarField;
    location    "1e-06";
    object      rho_dof0;
}
// * * * * * * * * * * * * * * * * * * * * * * * * * * * * * * * * * * * * * //

dimensions      [0 0 0 0 0 0 0];

internalField   nonuniform List<scalar> 
84
(
2.81141e-05
2.6329e-05
2.63556e-05
2.63554e-05
2.63555e-05
2.63557e-05
2.63558e-05
2.63832e-05
2.83709e-05
2.65746e-05
2.6605e-05
2.66087e-05
2.66127e-05
2.66168e-05
2.6621e-05
2.66486e-05
2.83408e-05
2.65521e-05
2.65793e-05
2.65826e-05
2.65862e-05
2.65899e-05
2.65938e-05
2.66213e-05
2.83185e-05
2.65271e-05
2.65569e-05
2.65598e-05
2.65631e-05
2.65665e-05
2.6594e-05
2.82952e-05
2.65015e-05
2.65309e-05
2.65334e-05
2.65363e-05
2.65393e-05
2.65668e-05
2.82685e-05
2.6476e-05
2.65049e-05
2.65071e-05
2.65095e-05
2.65121e-05
2.65396e-05
2.82418e-05
2.64504e-05
2.6479e-05
2.64807e-05
2.64828e-05
2.64849e-05
2.65124e-05
2.82132e-05
2.64266e-05
2.64531e-05
2.64545e-05
2.64561e-05
2.64578e-05
2.64853e-05
2.81882e-05
2.64005e-05
2.64283e-05
2.64293e-05
2.64306e-05
2.6458e-05
2.81634e-05
2.63751e-05
2.64024e-05
2.6403e-05
2.64039e-05
2.64313e-05
2.81355e-05
2.63491e-05
2.63761e-05
2.63763e-05
2.63767e-05
2.64041e-05
2.8082e-05
2.63244e-05
2.63498e-05
2.63496e-05
2.63496e-05
2.63496e-05
2.6377e-05
)
;

boundaryField
{
    inlet
    {
        type            calculated;
        value           nonuniform List<scalar> 0();
    }
    outlet2
    {
        type            calculated;
        value           uniform 2.81085e-05;
    }
    outlet1
    {
        type            calculated;
        value           uniform 2.81085e-05;
    }
    wall
    {
        type            calculated;
        value           uniform 2.81085e-05;
    }
    symmetryBottom
    {
        type            symmetry;
    }
    symmetryZ0
    {
        type            symmetry;
    }
    symmetryZ05
    {
        type            symmetry;
    }
    procBoundary0to1
    {
        type            processor;
        value           uniform 2.81085e-05;
    }
}


// ************************************************************************* //
