/*--------------------------------*- C++ -*----------------------------------*\
| =========                 |                                                 |
| \\      /  F ield         | OpenFOAM: The Open Source CFD Toolbox           |
|  \\    /   O peration     | Version:  2412                                  |
|   \\  /    A nd           | Website:  www.openfoam.com                      |
|    \\/     M anipulation  |                                                 |
\*---------------------------------------------------------------------------*/
FoamFile
{
    version     2.0;
    format      ascii;
    arch        "LSB;label=32;scalar=64";
    class       volVectorField;
    location    "1e-06";
    object      rhoU;
}
// * * * * * * * * * * * * * * * * * * * * * * * * * * * * * * * * * * * * * //

dimensions      [0 0 0 0 0 0 0];

internalField   nonuniform List<vector> 
84
(
(0.0741139 2.97979e-05 3.28376e-20)
(0.0693804 2.84214e-05 -3.27517e-20)
(0.0694512 2.8867e-05 -7.77617e-20)
(0.0694508 2.93e-05 3.52995e-20)
(0.069451 2.97465e-05 1.53256e-22)
(0.0694513 3.02067e-05 4.10541e-21)
(0.0694515 3.06814e-05 6.95078e-20)
(0.0695241 3.07045e-05 1.41357e-20)
(0.0748006 -2.99105e-05 2.95099e-20)
(0.0700368 -2.87166e-05 -2.86858e-20)
(0.070118 -2.91666e-05 -9.34274e-20)
(0.0701277 -2.96097e-05 2.38487e-21)
(0.0701383 -3.00666e-05 -1.58434e-19)
(0.0701492 -3.05378e-05 1.78081e-20)
(0.0701605 -3.1024e-05 1.33139e-19)
(0.0702335 -3.10442e-05 3.43673e-20)
(0.0747206 -2.9381e-05 -1.41285e-19)
(0.0699774 -2.90477e-05 2.20898e-20)
(0.0700499 -2.91384e-05 4.76718e-20)
(0.0700586 -2.95863e-05 -1.20678e-21)
(0.0700682 -3.00424e-05 -7.32489e-22)
(0.070078 -3.05128e-05 6.41544e-20)
(0.0700881 -3.09982e-05 -5.13264e-20)
(0.0701612 -3.10184e-05 -6.75758e-20)
(0.0746614 -2.98882e-05 -1.43715e-19)
(0.069911 -2.91042e-05 6.63765e-20)
(0.0699903 -2.95629e-05 -1.4544e-21)
(0.0699981 -3.00182e-05 -1.48535e-19)
(0.0700069 -3.04879e-05 1.33888e-19)
(0.0700159 -3.09725e-05 3.35077e-20)
(0.0700889 -3.09927e-05 -5.05621e-20)
(0.0745996 -3.02845e-05 -7.89892e-20)
(0.0698431 -2.90779e-05 -3.06613e-20)
(0.0699214 -2.95397e-05 4.72804e-22)
(0.0699282 -2.99942e-05 1.18633e-22)
(0.0699358 -3.04632e-05 -4.54255e-20)
(0.0699437 -3.09471e-05 3.70736e-20)
(0.0700166 -3.09673e-05 1.00149e-19)
(0.0745287 -2.8747e-05 -4.80977e-20)
(0.0697752 -2.75876e-05 7.87537e-20)
(0.0698524 -2.80269e-05 -1.1721e-21)
(0.0698581 -2.84589e-05 9.72558e-20)
(0.0698647 -2.89047e-05 -8.43633e-20)
(0.0698714 -2.93647e-05 6.81351e-20)
(0.0699443 -2.93841e-05 -1.54818e-19)
(0.0744575 -2.31805e-05 -3.58732e-24)
(0.0697071 -2.2227e-05 7.90692e-20)
(0.0697832 -2.25809e-05 -1.1517e-21)
(0.0697879 -2.29287e-05 -2.42274e-22)
(0.0697933 -2.32875e-05 8.3248e-20)
(0.0697989 -2.36578e-05 1.45045e-20)
(0.0698718 -2.36738e-05 8.57596e-20)
(0.0743814 -1.91343e-05 3.07762e-23)
(0.0696436 -1.90061e-05 4.45689e-23)
(0.0697144 -1.90224e-05 -2.49506e-22)
(0.0697181 -1.932e-05 -1.8345e-22)
(0.0697224 -1.96226e-05 2.5334e-23)
(0.0697269 -1.99348e-05 -1.62126e-23)
(0.0697997 -1.99486e-05 -6.36022e-20)
(0.0743151 -1.77921e-05 1.65973e-19)
(0.0695746 -1.7259e-05 -2.42882e-21)
(0.0696486 -1.75363e-05 -1.60597e-19)
(0.0696512 -1.781e-05 -6.59864e-20)
(0.0696546 -1.80925e-05 8.24846e-20)
(0.0697273 -1.81053e-05 -4.52055e-23)
(0.0742497 -1.81168e-05 -6.093e-20)
(0.0695074 -1.73259e-05 9.50256e-22)
(0.0695804 -1.76049e-05 -8.04065e-20)
(0.069582 -1.78777e-05 7.99176e-20)
(0.0695843 -1.81592e-05 1.49933e-19)
(0.0696569 -1.81723e-05 7.74175e-24)
(0.0741758 -2.01043e-05 -8.12575e-20)
(0.0694389 -1.94223e-05 1.19585e-21)
(0.0695107 -1.97323e-05 2.96135e-23)
(0.0695112 -2.00385e-05 1.47183e-19)
(0.0695124 -2.03546e-05 1.61897e-19)
(0.069585 -2.03692e-05 1.91436e-20)
(0.0740343 -5.22067e-07 -1.10837e-21)
(0.0693735 -2.34456e-05 9.73864e-24)
(0.0694413 -2.33243e-05 -5.63422e-26)
(0.0694407 -2.3686e-05 9.71623e-20)
(0.0694407 -2.40533e-05 -1.47109e-21)
(0.0694408 -2.44322e-05 1.31492e-23)
(0.0695134 -2.44504e-05 -8.1034e-20)
)
;

boundaryField
{
    inlet
    {
        type            calculated;
        value           nonuniform List<vector> 0();
    }
    outlet2
    {
        type            calculated;
        value           uniform (0 0 0);
    }
    outlet1
    {
        type            calculated;
        value           uniform (0 0 0);
    }
    wall
    {
        type            calculated;
        value           uniform (0 0 0);
    }
    symmetryBottom
    {
        type            symmetry;
    }
    symmetryZ0
    {
        type            symmetry;
    }
    symmetryZ05
    {
        type            symmetry;
    }
    procBoundary0to1
    {
        type            processor;
        value           uniform (0 0 0);
    }
}


// ************************************************************************* //
