/*--------------------------------*- C++ -*----------------------------------*\
| =========                 |                                                 |
| \\      /  F ield         | OpenFOAM: The Open Source CFD Toolbox           |
|  \\    /   O peration     | Version:  2412                                  |
|   \\  /    A nd           | Website:  www.openfoam.com                      |
|    \\/     M anipulation  |                                                 |
\*---------------------------------------------------------------------------*/
FoamFile
{
    version     2.0;
    format      ascii;
    arch        "LSB;label=32;scalar=64";
    class       volScalarField;
    location    "2.1e-06";
    object      E_dof0;
}
// * * * * * * * * * * * * * * * * * * * * * * * * * * * * * * * * * * * * * //

dimensions      [0 0 0 0 0 0 0];

internalField   nonuniform List<scalar> 
84
(
99.233
86.2849
86.7174
86.709
86.7099
86.7107
86.7115
86.9065
101.181
88.0159
88.482
88.5002
88.5286
88.5579
88.588
88.786
100.919
87.8911
88.2989
88.3164
88.342
88.3682
88.3953
88.593
100.756
87.683
88.1422
88.1555
88.179
88.203
88.4004
100.608
87.5022
87.959
87.9694
87.99
88.011
88.2081
100.408
87.3238
87.777
87.7847
87.8023
87.8203
88.0171
100.212
87.1494
87.5991
87.604
87.6188
87.6339
87.8304
99.9848
87.0063
87.4222
87.4256
87.4375
87.4497
87.6459
99.825
86.8308
87.2739
87.2739
87.2836
87.4796
99.5947
86.5988
87.0379
87.0344
87.0403
87.2359
99.3901
86.4308
86.866
86.8598
86.8629
87.0582
98.9995
86.272
86.6857
86.6773
86.6776
86.6777
86.8727
)
;

boundaryField
{
    inlet
    {
        type            calculated;
        value           nonuniform List<scalar> 0();
    }
    outlet2
    {
        type            calculated;
        value           uniform 99.4306;
    }
    outlet1
    {
        type            calculated;
        value           uniform 99.4306;
    }
    wall
    {
        type            calculated;
        value           uniform 99.4306;
    }
    symmetryBottom
    {
        type            symmetry;
    }
    symmetryZ0
    {
        type            symmetry;
    }
    symmetryZ05
    {
        type            symmetry;
    }
    procBoundary0to1
    {
        type            processor;
        value           uniform 99.4306;
    }
}


// ************************************************************************* //
