/*--------------------------------*- C++ -*----------------------------------*\
| =========                 |                                                 |
| \\      /  F ield         | OpenFOAM: The Open Source CFD Toolbox           |
|  \\    /   O peration     | Version:  2412                                  |
|   \\  /    A nd           | Website:  www.openfoam.com                      |
|    \\/     M anipulation  |                                                 |
\*---------------------------------------------------------------------------*/
FoamFile
{
    version     2.0;
    format      ascii;
    arch        "LSB;label=32;scalar=64";
    class       volScalarField;
    location    "2.1e-06";
    object      rho;
}
// * * * * * * * * * * * * * * * * * * * * * * * * * * * * * * * * * * * * * //

dimensions      [0 0 0 0 0 0 0];

internalField   nonuniform List<scalar> 
84
(
2.80599e-05
2.44389e-05
2.45586e-05
2.45564e-05
2.45567e-05
2.4557e-05
2.45573e-05
2.46119e-05
2.8599e-05
2.49185e-05
2.50474e-05
2.50525e-05
2.50605e-05
2.50687e-05
2.50771e-05
2.51325e-05
2.85259e-05
2.48834e-05
2.49962e-05
2.50011e-05
2.50083e-05
2.50156e-05
2.50232e-05
2.50785e-05
2.84803e-05
2.48254e-05
2.49523e-05
2.49561e-05
2.49627e-05
2.49694e-05
2.50246e-05
2.84389e-05
2.47748e-05
2.49011e-05
2.49041e-05
2.49098e-05
2.49157e-05
2.49708e-05
2.83826e-05
2.47245e-05
2.48499e-05
2.4852e-05
2.4857e-05
2.4862e-05
2.49171e-05
2.83262e-05
2.46744e-05
2.47987e-05
2.48001e-05
2.48042e-05
2.48084e-05
2.48634e-05
2.82609e-05
2.46327e-05
2.47476e-05
2.47486e-05
2.47519e-05
2.47552e-05
2.48101e-05
2.82084e-05
2.45764e-05
2.46987e-05
2.46986e-05
2.47011e-05
2.47559e-05
2.81618e-05
2.45273e-05
2.46488e-05
2.4648e-05
2.46497e-05
2.47044e-05
2.81002e-05
2.44765e-05
2.45968e-05
2.45951e-05
2.4596e-05
2.46507e-05
2.79893e-05
2.44311e-05
2.45454e-05
2.45431e-05
2.45432e-05
2.45433e-05
2.45978e-05
)
;

boundaryField
{
    inlet
    {
        type            calculated;
        value           nonuniform List<scalar> 0();
    }
    outlet2
    {
        type            calculated;
        value           uniform 0;
    }
    outlet1
    {
        type            calculated;
        value           uniform 0;
    }
    wall
    {
        type            calculated;
        value           uniform 0;
    }
    symmetryBottom
    {
        type            symmetry;
    }
    symmetryZ0
    {
        type            symmetry;
    }
    symmetryZ05
    {
        type            symmetry;
    }
    procBoundary0to1
    {
        type            processor;
        value           uniform 0;
    }
}


// ************************************************************************* //
