/*--------------------------------*- C++ -*----------------------------------*\
| =========                 |                                                 |
| \\      /  F ield         | OpenFOAM: The Open Source CFD Toolbox           |
|  \\    /   O peration     | Version:  2412                                  |
|   \\  /    A nd           | Website:  www.openfoam.com                      |
|    \\/     M anipulation  |                                                 |
\*---------------------------------------------------------------------------*/
FoamFile
{
    version     2.0;
    format      ascii;
    arch        "LSB;label=32;scalar=64";
    class       volVectorField;
    location    "2.1e-06";
    object      rhoU_dof0;
}
// * * * * * * * * * * * * * * * * * * * * * * * * * * * * * * * * * * * * * //

dimensions      [0 0 0 0 0 0 0];

internalField   nonuniform List<vector> 
84
(
(0.0739627 6.20079e-05 6.46931e-20)
(0.0643641 5.50027e-05 -6.55205e-20)
(0.0646829 5.60681e-05 -1.51628e-19)
(0.0646768 5.68986e-05 6.92244e-20)
(0.0646775 5.77596e-05 -1.8923e-21)
(0.0646782 5.86471e-05 8.33099e-21)
(0.0646789 5.95623e-05 1.41298e-19)
(0.0648234 5.96612e-05 2.98182e-20)
(0.0754039 -6.32797e-05 6.66921e-20)
(0.0656453 -5.65861e-05 -6.29804e-20)
(0.065989 -5.76691e-05 -1.82566e-19)
(0.0660025 -5.85506e-05 8.12212e-21)
(0.0660236 -5.94639e-05 -3.22008e-19)
(0.0660453 -6.04061e-05 4.43265e-20)
(0.0660677 -6.13787e-05 2.64083e-19)
(0.0662145 -6.14724e-05 5.97217e-20)
(0.0752101 -6.08368e-05 -2.94918e-19)
(0.0655525 -5.83248e-05 4.28008e-20)
(0.0658532 -5.74912e-05 9.34106e-20)
(0.0658663 -5.84431e-05 -4.13735e-21)
(0.0658852 -5.93515e-05 -2.13297e-21)
(0.0659047 -6.02902e-05 1.31324e-19)
(0.0659248 -6.1259e-05 -1.03309e-19)
(0.0660714 -6.13526e-05 -1.38812e-19)
(0.0750891 -6.21324e-05 -2.96497e-19)
(0.0653985 -5.72618e-05 1.34577e-19)
(0.065737 -5.83368e-05 -5.38197e-21)
(0.0657469 -5.92393e-05 -2.93703e-19)
(0.0657643 -6.01744e-05 2.71736e-19)
(0.0657822 -6.11396e-05 5.97206e-20)
(0.0659285 -6.1233e-05 -1.00943e-19)
(0.0749794 -6.3897e-05 -1.60763e-19)
(0.0652644 -5.71217e-05 -5.84549e-20)
(0.0656011 -5.82333e-05 2.02121e-21)
(0.065609 -5.91319e-05 5.82188e-22)
(0.0656242 -6.00638e-05 -9.39908e-20)
(0.0656398 -6.10254e-05 7.21518e-20)
(0.0657859 -6.11188e-05 1.97188e-19)
(0.0748297 -6.08153e-05 -1.00274e-19)
(0.065131 -5.43235e-05 1.62497e-19)
(0.0654651 -5.53873e-05 -5.30206e-21)
(0.0654708 -5.6246e-05 1.95637e-19)
(0.0654839 -5.71365e-05 -1.70837e-19)
(0.0654972 -5.80557e-05 1.44465e-19)
(0.0656431 -5.81453e-05 -3.14394e-19)
(0.0746794 -4.8965e-05 -1.5336e-23)
(0.0649972 -4.37099e-05 1.59575e-19)
(0.0653286 -4.45622e-05 -5.24747e-21)
(0.0653323 -4.52516e-05 -3.97796e-22)
(0.0653431 -4.59664e-05 1.63752e-19)
(0.0653542 -4.67041e-05 2.68784e-20)
(0.0654999 -4.67768e-05 1.73123e-19)
(0.0745058 -3.94091e-05 6.93498e-22)
(0.0648864 -3.83209e-05 4.62978e-22)
(0.0651928 -3.75368e-05 -5.18637e-22)
(0.0651952 -3.81776e-05 -7.15366e-22)
(0.0652039 -3.87807e-05 -8.0755e-23)
(0.0652127 -3.94044e-05 1.62058e-22)
(0.0653582 -3.94663e-05 -1.30348e-19)
(0.0743664 -3.68447e-05 3.55252e-19)
(0.0647366 -3.37988e-05 -1.13064e-20)
(0.0650626 -3.44485e-05 -3.22672e-19)
(0.0650623 -3.4986e-05 -1.25001e-19)
(0.0650689 -3.55434e-05 1.70558e-19)
(0.0652142 -3.56e-05 -9.37826e-23)
(0.0742435 -3.78319e-05 -1.24883e-19)
(0.0646079 -3.36691e-05 4.13227e-21)
(0.0649319 -3.43326e-05 -1.6092e-19)
(0.0649295 -3.48601e-05 1.67345e-19)
(0.0649342 -3.54074e-05 2.91773e-19)
(0.0650792 -3.54645e-05 -7.33224e-21)
(0.0740806 -4.14523e-05 -1.69462e-19)
(0.0644734 -3.78476e-05 5.48933e-21)
(0.0647942 -3.85528e-05 2.32953e-23)
(0.0647897 -3.91481e-05 2.90581e-19)
(0.0647921 -3.97649e-05 3.14104e-19)
(0.0649369 -3.98289e-05 2.64703e-20)
(0.0737872 -2.30729e-06 -4.94822e-21)
(0.0643535 -4.67965e-05 1.03008e-22)
(0.0646584 -4.54511e-05 -1.52545e-24)
(0.0646522 -4.61991e-05 1.90823e-19)
(0.0646525 -4.69127e-05 -6.45366e-21)
(0.0646526 -4.76498e-05 1.36022e-22)
(0.0647972 -4.77278e-05 -1.68016e-19)
)
;

boundaryField
{
    inlet
    {
        type            calculated;
        value           nonuniform List<vector> 0();
    }
    outlet2
    {
        type            calculated;
        value           uniform (0.0741049 0 0);
    }
    outlet1
    {
        type            calculated;
        value           uniform (0.0741049 0 0);
    }
    wall
    {
        type            calculated;
        value           uniform (0.0741049 0 0);
    }
    symmetryBottom
    {
        type            symmetry;
    }
    symmetryZ0
    {
        type            symmetry;
    }
    symmetryZ05
    {
        type            symmetry;
    }
    procBoundary0to1
    {
        type            processor;
        value           uniform (0.0741049 0 0);
    }
}


// ************************************************************************* //
