/*--------------------------------*- C++ -*----------------------------------*\
| =========                 |                                                 |
| \\      /  F ield         | OpenFOAM: The Open Source CFD Toolbox           |
|  \\    /   O peration     | Version:  2412                                  |
|   \\  /    A nd           | Website:  www.openfoam.com                      |
|    \\/     M anipulation  |                                                 |
\*---------------------------------------------------------------------------*/
FoamFile
{
    version     2.0;
    format      ascii;
    arch        "LSB;label=32;scalar=64";
    class       volScalarField;
    location    "2.1e-06";
    object      T;
}
// * * * * * * * * * * * * * * * * * * * * * * * * * * * * * * * * * * * * * //

dimensions      [0 0 0 0 0 0 0];

internalField   nonuniform List<scalar> 
84
(
201.275
201.301
201.325
201.344
201.365
201.386
201.408
201.407
199.997
199.995
200
199.999
199.999
199.999
199.999
199.999
199.994
199.996
200
199.999
199.999
199.999
199.999
199.999
199.997
199.995
200
199.999
199.999
199.999
199.999
199.997
199.996
200
200
200
200
200
200.233
200.24
200.248
200.251
200.255
200.258
200.258
201.149
201.184
201.205
201.223
201.242
201.261
201.261
201.99
202.079
202.104
202.136
202.17
202.204
202.203
205.278
205.624
205.707
205.798
205.893
205.888
197.798
197.739
197.71
197.674
197.636
197.638
199.46
199.46
199.456
199.447
199.438
199.438
199.977
199.771
199.776
199.772
199.768
199.765
199.765
)
;

boundaryField
{
    inlet
    {
        type            calculated;
        value           nonuniform List<scalar> 0();
    }
    outlet2
    {
        type            calculated;
        value           uniform 0;
    }
    outlet1
    {
        type            calculated;
        value           uniform 0;
    }
    wall
    {
        type            calculated;
        value           uniform 0;
    }
    symmetryBottom
    {
        type            symmetry;
    }
    symmetryZ0
    {
        type            symmetry;
    }
    symmetryZ05
    {
        type            symmetry;
    }
    procBoundary0to1
    {
        type            processor;
        value           uniform 0;
    }
}


// ************************************************************************* //
