/*--------------------------------*- C++ -*----------------------------------*\
| =========                 |                                                 |
| \\      /  F ield         | OpenFOAM: The Open Source CFD Toolbox           |
|  \\    /   O peration     | Version:  2412                                  |
|   \\  /    A nd           | Website:  www.openfoam.com                      |
|    \\/     M anipulation  |                                                 |
\*---------------------------------------------------------------------------*/
FoamFile
{
    version     2.0;
    format      ascii;
    arch        "LSB;label=32;scalar=64";
    class       volScalarField;
    location    "7.5e-06";
    object      E_dof0;
}
// * * * * * * * * * * * * * * * * * * * * * * * * * * * * * * * * * * * * * //

dimensions      [0 0 0 0 0 0 0];

internalField   nonuniform List<scalar> 
84
(
95.6495
56.6783
61.4843
61.0981
61.1272
61.1317
61.1376
61.675
102.395
60.7852
65.9817
65.6387
65.7401
65.8176
65.899
66.4678
100.99
61.0358
65.396
65.1633
65.2466
65.3165
65.3894
65.955
100.497
60.0012
65.0833
64.733
64.8203
64.8836
65.4459
100.351
59.5146
64.6047
64.2464
64.3257
64.3806
64.9398
99.6341
59.0775
64.1249
63.7617
63.8328
63.8795
64.4354
98.9302
58.6544
63.6555
63.2883
63.3513
63.39
63.9427
97.8896
58.6219
63.1434
62.8351
62.8852
62.9166
63.4662
97.3271
57.897
62.7957
62.4214
62.4704
63.016
96.796
57.3577
62.2351
61.8543
61.8946
62.4361
95.9472
56.9688
61.7744
61.3915
61.4236
61.9622
94.6502
56.7406
61.3017
60.9414
60.9641
60.9645
61.5013
)
;

boundaryField
{
    inlet
    {
        type            calculated;
        value           nonuniform List<scalar> 0();
    }
    outlet2
    {
        type            calculated;
        value           uniform 99.4306;
    }
    outlet1
    {
        type            calculated;
        value           uniform 99.4306;
    }
    wall
    {
        type            calculated;
        value           uniform 99.4306;
    }
    symmetryBottom
    {
        type            symmetry;
    }
    symmetryZ0
    {
        type            symmetry;
    }
    symmetryZ05
    {
        type            symmetry;
    }
    procBoundary0to1
    {
        type            processor;
        value           uniform 99.4306;
    }
}


// ************************************************************************* //
