/*--------------------------------*- C++ -*----------------------------------*\
| =========                 |                                                 |
| \\      /  F ield         | OpenFOAM: The Open Source CFD Toolbox           |
|  \\    /   O peration     | Version:  2412                                  |
|   \\  /    A nd           | Website:  www.openfoam.com                      |
|    \\/     M anipulation  |                                                 |
\*---------------------------------------------------------------------------*/
FoamFile
{
    version     2.0;
    format      ascii;
    arch        "LSB;label=32;scalar=64";
    class       volVectorField;
    location    "7.5e-06";
    object      U;
}
// * * * * * * * * * * * * * * * * * * * * * * * * * * * * * * * * * * * * * //

dimensions      [0 0 0 0 0 0 0];

internalField   nonuniform List<vector> 
84
(
(2633.75 7.60523 7.87287e-15)
(2624.58 7.74835 -1.23325e-14)
(2627.49 7.84858 -1.79635e-14)
(2627.15 7.96164 1.20479e-14)
(2627.15 8.07706 -2.14879e-15)
(2627.13 8.19593 1.64573e-15)
(2627.1 8.31832 1.7274e-14)
(2627.26 8.30222 1.65492e-15)
(2636.23 -7.87149 7.27148e-15)
(2627.25 -8.16907 -1.15236e-14)
(2630.15 -8.21514 -2.2307e-14)
(2629.86 -8.34791 3.40153e-15)
(2629.9 -8.47467 -4.16745e-14)
(2629.91 -8.60618 1.14431e-14)
(2629.93 -8.74179 3.41708e-14)
(2630.08 -8.72234 5.91386e-15)
(2635.95 -7.01296 -2.87848e-14)
(2627.56 -9.49267 1.01382e-14)
(2629.95 -8.03062 1.18298e-14)
(2629.75 -8.3658 -1.90485e-15)
(2629.78 -8.47534 -6.93132e-16)
(2629.79 -8.60795 1.63293e-14)
(2629.81 -8.74356 -1.39855e-14)
(2629.96 -8.7241 -1.51739e-14)
(2635.88 -7.34078 -2.74535e-14)
(2627.07 -8.35383 2.14522e-14)
(2629.93 -8.3416 -2.68876e-15)
(2629.64 -8.47866 -3.77052e-14)
(2629.67 -8.60967 3.85698e-14)
(2629.69 -8.74541 5.65958e-15)
(2629.84 -8.72594 -1.40576e-14)
(2635.92 -8.01218 -1.61231e-14)
(2626.91 -8.26791 -6.5336e-15)
(2629.82 -8.35148 9.11773e-16)
(2629.52 -8.48345 2.76485e-16)
(2629.55 -8.61485 -1.27323e-14)
(2629.57 -8.75074 1.16816e-14)
(2629.72 -8.73124 2.40731e-14)
(2635.79 -7.78388 -1.08332e-14)
(2626.75 -8.01529 2.26243e-14)
(2629.66 -8.10496 -2.85416e-15)
(2629.36 -8.23595 2.49174e-14)
(2629.39 -8.36713 -2.34291e-14)
(2629.4 -8.50288 1.96505e-14)
(2629.56 -8.48383 -4.06167e-14)
(2635.54 -6.25822 -4.59133e-18)
(2626.42 -6.4679 2.05498e-14)
(2629.35 -6.52243 -2.70913e-15)
(2629.04 -6.63017 1.53266e-16)
(2629.07 -6.73532 2.04616e-14)
(2629.08 -6.84436 1.93868e-15)
(2629.23 -6.82911 2.00554e-14)
(2635.31 -4.56663 3.24563e-16)
(2626.38 -6.65912 4.28062e-16)
(2629.09 -5.42661 -1.43176e-16)
(2628.82 -5.69258 -3.68459e-16)
(2628.84 -5.76958 -6.78275e-17)
(2628.84 -5.86567 1.83789e-16)
(2629 -5.85232 -1.57277e-14)
(2635.06 -4.39852 4.08613e-14)
(2625.78 -5.00375 -7.97793e-15)
(2628.76 -5.00538 -4.29239e-14)
(2628.43 -5.08886 -1.17416e-14)
(2628.45 -5.16979 2.42148e-14)
(2628.61 -5.15851 -3.76111e-15)
(2635.25 -4.66242 -1.42432e-14)
(2626.39 -4.78399 2.86112e-15)
(2629.24 -4.83811 -1.98583e-14)
(2628.93 -4.91187 2.27295e-14)
(2628.96 -4.98604 3.70944e-14)
(2629.11 -4.97578 -4.90727e-15)
(2635.18 -4.88404 -1.74647e-14)
(2626.19 -5.59114 3.84257e-15)
(2629.07 -5.52666 -2.23537e-16)
(2628.76 -5.62365 3.88809e-14)
(2628.79 -5.71025 3.85975e-14)
(2628.94 -5.69818 8.77283e-16)
(2635.05 -0.87229 -1.66561e-15)
(2626.14 -7.89478 2.42937e-16)
(2628.98 -6.39761 -1.39704e-17)
(2628.68 -6.64379 2.41889e-14)
(2628.7 -6.73444 -3.35305e-15)
(2628.7 -6.83937 2.88359e-16)
(2628.85 -6.82512 -1.95206e-14)
)
;

boundaryField
{
    inlet
    {
        type            calculated;
        value           nonuniform List<vector> 0();
    }
    outlet2
    {
        type            calculated;
        value           uniform (0 0 0);
    }
    outlet1
    {
        type            calculated;
        value           uniform (0 0 0);
    }
    wall
    {
        type            calculated;
        value           uniform (0 0 0);
    }
    symmetryBottom
    {
        type            symmetry;
    }
    symmetryZ0
    {
        type            symmetry;
    }
    symmetryZ05
    {
        type            symmetry;
    }
    procBoundary0to1
    {
        type            processor;
        value           uniform (0 0 0);
    }
}


// ************************************************************************* //
