/*--------------------------------*- C++ -*----------------------------------*\
| =========                 |                                                 |
| \\      /  F ield         | OpenFOAM: The Open Source CFD Toolbox           |
|  \\    /   O peration     | Version:  2412                                  |
|   \\  /    A nd           | Website:  www.openfoam.com                      |
|    \\/     M anipulation  |                                                 |
\*---------------------------------------------------------------------------*/
FoamFile
{
    version     2.0;
    format      ascii;
    arch        "LSB;label=32;scalar=64";
    class       volScalarField;
    location    "4.8e-06";
    object      E_dof0;
}
// * * * * * * * * * * * * * * * * * * * * * * * * * * * * * * * * * * * * * //

dimensions      [0 0 0 0 0 0 0];

internalField   nonuniform List<scalar> 
84
(
99.4358
35.8613
47.1697
99.4564
35.8832
47.1895
99.4512
35.8804
47.1862
99.4512
35.8804
47.1862
99.4512
35.8804
47.1862
99.4512
35.8804
47.1862
99.4512
35.8804
47.1862
99.4512
35.8804
47.1862
99.4512
35.8804
47.1862
99.4512
35.8804
47.1862
99.4512
35.8803
47.1862
99.4514
35.8754
47.1831
75.0991
72.6268
73.1086
78.5517
75.8151
76.3253
78.1913
75.4821
75.9865
77.8323
75.1505
75.3372
72.4857
77.4743
74.8199
74.9999
75.3545
77.1184
74.4912
74.6646
75.018
76.7708
74.1697
74.3367
74.6891
76.4304
73.8549
74.0157
74.3653
76.1192
73.5646
73.72
73.7303
72.6057
75.6794
73.1643
73.3111
73.3155
73.6677
75.3477
72.857
72.9977
72.9985
73.4287
75.0111
72.5453
72.6801
73.0262
)
;

boundaryField
{
    inlet
    {
        type            calculated;
        value           uniform 99.4306;
    }
    outlet2
    {
        type            calculated;
        value           uniform 99.4306;
    }
    outlet1
    {
        type            calculated;
        value           nonuniform List<scalar> 0();
    }
    wall
    {
        type            calculated;
        value           uniform 99.4306;
    }
    symmetryBottom
    {
        type            symmetry;
    }
    symmetryZ0
    {
        type            symmetry;
    }
    symmetryZ05
    {
        type            symmetry;
    }
    procBoundary1to0
    {
        type            processor;
        value           uniform 99.4306;
    }
}


// ************************************************************************* //
