/*--------------------------------*- C++ -*----------------------------------*\
| =========                 |                                                 |
| \\      /  F ield         | OpenFOAM: The Open Source CFD Toolbox           |
|  \\    /   O peration     | Version:  2412                                  |
|   \\  /    A nd           | Website:  www.openfoam.com                      |
|    \\/     M anipulation  |                                                 |
\*---------------------------------------------------------------------------*/
FoamFile
{
    version     2.0;
    format      ascii;
    arch        "LSB;label=32;scalar=64";
    class       volScalarField;
    location    "4.8e-06";
    object      rho;
}
// * * * * * * * * * * * * * * * * * * * * * * * * * * * * * * * * * * * * * //

dimensions      [0 0 0 0 0 0 0];

internalField   nonuniform List<scalar> 
84
(
2.811e-05
1.03107e-05
1.34427e-05
2.81158e-05
1.03169e-05
1.34483e-05
2.81143e-05
1.03161e-05
1.34474e-05
2.81143e-05
1.03161e-05
1.34474e-05
2.81143e-05
1.03161e-05
1.34474e-05
2.81143e-05
1.03161e-05
1.34474e-05
2.81143e-05
1.03161e-05
1.34474e-05
2.81143e-05
1.03161e-05
1.34474e-05
2.81143e-05
1.03161e-05
1.34474e-05
2.81143e-05
1.03161e-05
1.34474e-05
2.81143e-05
1.03161e-05
1.34474e-05
2.81144e-05
1.03147e-05
1.34465e-05
2.13027e-05
2.06166e-05
2.07508e-05
2.226e-05
2.15014e-05
2.16433e-05
2.21591e-05
2.1408e-05
2.15484e-05
2.20586e-05
2.13151e-05
2.13665e-05
2.05678e-05
2.19584e-05
2.12224e-05
2.1272e-05
2.13713e-05
2.18582e-05
2.11298e-05
2.11775e-05
2.12765e-05
2.17582e-05
2.10375e-05
2.10833e-05
2.1182e-05
2.16597e-05
2.09464e-05
2.09904e-05
2.10884e-05
2.15573e-05
2.08518e-05
2.08939e-05
2.08966e-05
2.06039e-05
2.14663e-05
2.07675e-05
2.08081e-05
2.08095e-05
2.09084e-05
2.13659e-05
2.06747e-05
2.07134e-05
2.07137e-05
2.08341e-05
2.12698e-05
2.05857e-05
2.06227e-05
2.07197e-05
)
;

boundaryField
{
    inlet
    {
        type            calculated;
        value           uniform 0;
    }
    outlet2
    {
        type            calculated;
        value           uniform 0;
    }
    outlet1
    {
        type            calculated;
        value           nonuniform List<scalar> 0();
    }
    wall
    {
        type            calculated;
        value           uniform 0;
    }
    symmetryBottom
    {
        type            symmetry;
    }
    symmetryZ0
    {
        type            symmetry;
    }
    symmetryZ05
    {
        type            symmetry;
    }
    procBoundary1to0
    {
        type            processor;
        value           uniform 0;
    }
}


// ************************************************************************* //
