/*--------------------------------*- C++ -*----------------------------------*\
| =========                 |                                                 |
| \\      /  F ield         | OpenFOAM: The Open Source CFD Toolbox           |
|  \\    /   O peration     | Version:  2412                                  |
|   \\  /    A nd           | Website:  www.openfoam.com                      |
|    \\/     M anipulation  |                                                 |
\*---------------------------------------------------------------------------*/
FoamFile
{
    version     2.0;
    format      ascii;
    arch        "LSB;label=32;scalar=64";
    class       volScalarField;
    location    "7.6e-06";
    object      rho;
}
// * * * * * * * * * * * * * * * * * * * * * * * * * * * * * * * * * * * * * //

dimensions      [0 0 0 0 0 0 0];

internalField   nonuniform List<scalar> 
84
(
2.7055e-05
1.60197e-05
1.73831e-05
1.72735e-05
1.7282e-05
1.72835e-05
1.72854e-05
1.74375e-05
2.89458e-05
1.71686e-05
1.86421e-05
1.85445e-05
1.85733e-05
1.85952e-05
1.86182e-05
1.87792e-05
2.85479e-05
1.72401e-05
1.84762e-05
1.841e-05
1.84336e-05
1.84534e-05
1.8474e-05
1.86341e-05
2.84084e-05
1.69469e-05
1.83879e-05
1.82883e-05
1.8313e-05
1.83309e-05
1.84901e-05
2.83672e-05
1.68092e-05
1.82525e-05
1.81506e-05
1.81731e-05
1.81886e-05
1.83469e-05
2.81634e-05
1.66851e-05
1.81162e-05
1.8013e-05
1.80331e-05
1.80463e-05
1.82036e-05
2.79583e-05
1.65629e-05
1.79803e-05
1.78759e-05
1.78937e-05
1.79046e-05
1.8061e-05
2.76567e-05
1.65511e-05
1.78313e-05
1.77437e-05
1.77578e-05
1.77665e-05
1.7922e-05
2.74698e-05
1.63262e-05
1.77119e-05
1.76051e-05
1.76185e-05
1.77726e-05
2.73835e-05
1.62108e-05
1.75956e-05
1.74874e-05
1.74991e-05
1.76525e-05
2.71261e-05
1.60927e-05
1.74556e-05
1.73467e-05
1.7356e-05
1.75084e-05
2.67529e-05
1.60273e-05
1.73193e-05
1.72172e-05
1.72236e-05
1.72238e-05
1.73757e-05
)
;

boundaryField
{
    inlet
    {
        type            calculated;
        value           nonuniform List<scalar> 0();
    }
    outlet2
    {
        type            calculated;
        value           uniform 0;
    }
    outlet1
    {
        type            calculated;
        value           uniform 0;
    }
    wall
    {
        type            calculated;
        value           uniform 0;
    }
    symmetryBottom
    {
        type            symmetry;
    }
    symmetryZ0
    {
        type            symmetry;
    }
    symmetryZ05
    {
        type            symmetry;
    }
    procBoundary0to1
    {
        type            processor;
        value           uniform 0;
    }
}


// ************************************************************************* //
