/*--------------------------------*- C++ -*----------------------------------*\
| =========                 |                                                 |
| \\      /  F ield         | OpenFOAM: The Open Source CFD Toolbox           |
|  \\    /   O peration     | Version:  2412                                  |
|   \\  /    A nd           | Website:  www.openfoam.com                      |
|    \\/     M anipulation  |                                                 |
\*---------------------------------------------------------------------------*/
FoamFile
{
    version     2.0;
    format      ascii;
    arch        "LSB;label=32;scalar=64";
    class       volScalarField;
    location    "4.6e-06";
    object      E_dof0;
}
// * * * * * * * * * * * * * * * * * * * * * * * * * * * * * * * * * * * * * //

dimensions      [0 0 0 0 0 0 0];

internalField   nonuniform List<scalar> 
84
(
98.0359
71.8418
73.8082
73.7141
73.7203
73.7229
73.7257
74.1043
102.265
75.0139
77.1091
77.0615
77.1196
77.1756
77.2336
77.6256
101.54
74.947
76.7394
76.7129
76.764
76.8144
76.8664
77.257
101.207
74.4013
76.4627
76.4065
76.4548
76.5008
76.8901
101.003
74.0554
76.1154
76.0537
76.0963
76.1365
76.5244
100.562
73.7234
75.7697
75.7029
75.7398
75.7741
76.1607
100.13
73.3997
75.4316
75.3599
75.3913
75.4199
75.8051
99.5559
73.2287
75.087
75.025
75.0503
75.0735
75.4574
99.2065
72.8115
74.8127
74.7324
74.754
75.1366
98.7905
72.3938
74.3851
74.2987
74.3135
74.6944
98.3015
72.0857
74.0566
73.9656
73.975
74.3546
97.4729
71.8428
73.7175
73.6284
73.6322
73.6328
74.0112
)
;

boundaryField
{
    inlet
    {
        type            calculated;
        value           nonuniform List<scalar> 0();
    }
    outlet2
    {
        type            calculated;
        value           uniform 99.4306;
    }
    outlet1
    {
        type            calculated;
        value           uniform 99.4306;
    }
    wall
    {
        type            calculated;
        value           uniform 99.4306;
    }
    symmetryBottom
    {
        type            symmetry;
    }
    symmetryZ0
    {
        type            symmetry;
    }
    symmetryZ05
    {
        type            symmetry;
    }
    procBoundary0to1
    {
        type            processor;
        value           uniform 99.4306;
    }
}


// ************************************************************************* //
