/*--------------------------------*- C++ -*----------------------------------*\
| =========                 |                                                 |
| \\      /  F ield         | OpenFOAM: The Open Source CFD Toolbox           |
|  \\    /   O peration     | Version:  2412                                  |
|   \\  /    A nd           | Website:  www.openfoam.com                      |
|    \\/     M anipulation  |                                                 |
\*---------------------------------------------------------------------------*/
FoamFile
{
    version     2.0;
    format      ascii;
    arch        "LSB;label=32;scalar=64";
    class       volVectorField;
    location    "4.6e-06";
    object      U;
}
// * * * * * * * * * * * * * * * * * * * * * * * * * * * * * * * * * * * * * //

dimensions      [0 0 0 0 0 0 0];

internalField   nonuniform List<vector> 
84
(
(2635.02 4.75989 4.7429e-15)
(2629.92 4.84867 -6.50145e-15)
(2630.82 4.91539 -1.23326e-14)
(2630.74 4.98752 6.9453e-15)
(2630.73 5.06157 -6.68897e-16)
(2630.71 5.13786 8.36293e-16)
(2630.7 5.21648 1.16975e-14)
(2630.79 5.21025 1.86978e-15)
(2636.56 -4.83905 4.68176e-15)
(2631.54 -4.98571 -6.21254e-15)
(2632.44 -5.0425 -1.46184e-14)
(2632.39 -5.11967 1.37413e-15)
(2632.41 -5.19781 -2.75018e-14)
(2632.42 -5.27845 5.40195e-15)
(2632.43 -5.36163 2.18699e-14)
(2632.51 -5.35426 4.37947e-15)
(2636.42 -4.48127 -1.97891e-14)
(2631.59 -5.40768 4.80829e-15)
(2632.36 -5.00571 8.40591e-15)
(2632.32 -5.12262 -7.30858e-16)
(2632.33 -5.19876 -3.11717e-16)
(2632.34 -5.27951 1.10614e-14)
(2632.35 -5.36271 -9.81205e-15)
(2632.44 -5.35534 -1.07343e-14)
(2636.37 -4.63353 -1.9311e-14)
(2631.41 -5.07485 1.22732e-14)
(2632.31 -5.12023 -1.01959e-15)
(2632.26 -5.19992 -2.48003e-14)
(2632.27 -5.28057 2.39543e-14)
(2632.28 -5.36382 4.42353e-15)
(2632.36 -5.35644 -9.63839e-15)
(2636.37 -4.918 -1.17904e-14)
(2631.33 -5.0583 -4.54619e-15)
(2632.24 -5.12308 3.71095e-16)
(2632.18 -5.20218 1.13744e-16)
(2632.2 -5.28291 -8.98494e-15)
(2632.2 -5.36623 6.81718e-15)
(2632.29 -5.35885 1.54812e-14)
(2636.28 -4.73028 -7.15634e-15)
(2631.23 -4.85868 1.36068e-14)
(2632.14 -4.92323 -1.07804e-15)
(2632.09 -5.00039 1.60245e-14)
(2632.1 -5.07927 -1.44479e-14)
(2632.1 -5.16072 1.23856e-14)
(2632.19 -5.15366 -2.67363e-14)
(2636.14 -3.81085 -2.16253e-18)
(2631.06 -3.91691 1.31681e-14)
(2631.97 -3.96625 -1.05822e-15)
(2631.91 -4.0286 5.71195e-18)
(2631.92 -4.09207 1.33465e-14)
(2631.92 -4.15761 1.81982e-15)
(2632.01 -4.15197 1.32472e-14)
(2636.01 -2.9254 1.35382e-16)
(2630.99 -3.67534 1.30179e-16)
(2631.84 -3.34058 -5.86834e-17)
(2631.79 -3.42686 -1.3903e-16)
(2631.79 -3.47969 -2.90865e-17)
(2631.79 -3.53606 5.89563e-17)
(2631.88 -3.53126 -1.14747e-14)
(2635.89 -2.7774 2.54639e-14)
(2630.77 -3.03119 -2.5599e-15)
(2631.69 -3.06186 -2.80464e-14)
(2631.63 -3.1104 -9.87462e-15)
(2631.63 -3.15975 1.51227e-14)
(2631.72 -3.15559 -1.12199e-15)
(2635.95 -2.90476 -9.1669e-15)
(2630.95 -2.97329 9.20324e-16)
(2631.85 -3.01344 -1.30195e-14)
(2631.79 -3.05946 1.41857e-14)
(2631.79 -3.1066 2.3938e-14)
(2631.88 -3.10265 -2.08472e-15)
(2635.91 -3.11554 -1.28945e-14)
(2630.87 -3.39248 1.25188e-15)
(2631.77 -3.41477 -3.37531e-17)
(2631.71 -3.46889 2.5025e-14)
(2631.72 -3.52306 2.59845e-14)
(2631.8 -3.51851 1.17332e-15)
(2635.83 -0.364655 -7.7156e-16)
(2630.84 -4.45565 5.23337e-17)
(2631.73 -4.00772 -1.82078e-18)
(2631.66 -4.09889 1.54655e-14)
(2631.67 -4.16057 -1.27612e-15)
(2631.67 -4.22556 6.45645e-17)
(2631.75 -4.22023 -1.32108e-14)
)
;

boundaryField
{
    inlet
    {
        type            calculated;
        value           nonuniform List<vector> 0();
    }
    outlet2
    {
        type            calculated;
        value           uniform (0 0 0);
    }
    outlet1
    {
        type            calculated;
        value           uniform (0 0 0);
    }
    wall
    {
        type            calculated;
        value           uniform (0 0 0);
    }
    symmetryBottom
    {
        type            symmetry;
    }
    symmetryZ0
    {
        type            symmetry;
    }
    symmetryZ05
    {
        type            symmetry;
    }
    procBoundary0to1
    {
        type            processor;
        value           uniform (0 0 0);
    }
}


// ************************************************************************* //
