/*--------------------------------*- C++ -*----------------------------------*\
| =========                 |                                                 |
| \\      /  F ield         | OpenFOAM: The Open Source CFD Toolbox           |
|  \\    /   O peration     | Version:  2412                                  |
|   \\  /    A nd           | Website:  www.openfoam.com                      |
|    \\/     M anipulation  |                                                 |
\*---------------------------------------------------------------------------*/
FoamFile
{
    version     2.0;
    format      ascii;
    arch        "LSB;label=32;scalar=64";
    class       volScalarField;
    location    "9.5e-06";
    object      rho_dof0;
}
// * * * * * * * * * * * * * * * * * * * * * * * * * * * * * * * * * * * * * //

dimensions      [0 0 0 0 0 0 0];

internalField   nonuniform List<scalar> 
84
(
2.88729e-05
1.44812e-05
1.55662e-05
1.55165e-05
1.55236e-05
1.55295e-05
1.55201e-05
1.57145e-05
3.09444e-05
1.55447e-05
1.67229e-05
1.66875e-05
1.67134e-05
1.67386e-05
1.67498e-05
1.69554e-05
3.05193e-05
1.55772e-05
1.65776e-05
1.65564e-05
1.65796e-05
1.66028e-05
1.6612e-05
1.68163e-05
3.01732e-05
1.53241e-05
1.64595e-05
1.64223e-05
1.64451e-05
1.64514e-05
1.66543e-05
3.0204e-05
1.5162e-05
1.63086e-05
1.62683e-05
1.62885e-05
1.62921e-05
1.64935e-05
2.99389e-05
1.50234e-05
1.6158e-05
1.61157e-05
1.61334e-05
1.61343e-05
1.63343e-05
2.96716e-05
1.4887e-05
1.60087e-05
1.59646e-05
1.59798e-05
1.5978e-05
1.61766e-05
2.93223e-05
1.48198e-05
1.58542e-05
1.58152e-05
1.58276e-05
1.58232e-05
1.60204e-05
2.90253e-05
1.46325e-05
1.57212e-05
1.56748e-05
1.56699e-05
1.58657e-05
2.88972e-05
1.44869e-05
1.55743e-05
1.55255e-05
1.55181e-05
1.57125e-05
2.86186e-05
1.43545e-05
1.54281e-05
1.53776e-05
1.53677e-05
1.55607e-05
2.80963e-05
1.42589e-05
1.528e-05
1.52299e-05
1.52332e-05
1.52188e-05
1.54105e-05
)
;

boundaryField
{
    inlet
    {
        type            calculated;
        value           nonuniform List<scalar> 0();
    }
    outlet2
    {
        type            calculated;
        value           uniform 2.81085e-05;
    }
    outlet1
    {
        type            calculated;
        value           uniform 2.81085e-05;
    }
    wall
    {
        type            calculated;
        value           uniform 2.81085e-05;
    }
    symmetryBottom
    {
        type            symmetry;
    }
    symmetryZ0
    {
        type            symmetry;
    }
    symmetryZ05
    {
        type            symmetry;
    }
    procBoundary0to1
    {
        type            processor;
        value           uniform 2.81085e-05;
    }
}


// ************************************************************************* //
