/*--------------------------------*- C++ -*----------------------------------*\
| =========                 |                                                 |
| \\      /  F ield         | OpenFOAM: The Open Source CFD Toolbox           |
|  \\    /   O peration     | Version:  2412                                  |
|   \\  /    A nd           | Website:  www.openfoam.com                      |
|    \\/     M anipulation  |                                                 |
\*---------------------------------------------------------------------------*/
FoamFile
{
    version     2.0;
    format      ascii;
    arch        "LSB;label=32;scalar=64";
    class       volScalarField;
    location    "9.13819e-07";
    object      E;
}
// * * * * * * * * * * * * * * * * * * * * * * * * * * * * * * * * * * * * * //

dimensions      [0 0 0 0 0 0 0];

internalField   nonuniform List<scalar> 
625
(
100.781
85.8294
85.8294
100.783
85.8312
85.8312
100.781
85.8295
85.8295
100.781
85.8295
85.8295
100.781
85.8295
85.8295
100.781
85.8295
85.8295
100.781
85.8295
85.8295
100.781
85.8295
85.8295
100.781
85.8295
85.8295
100.781
85.8295
85.8295
100.781
85.8295
85.8295
100.781
85.8295
85.8295
100.781
85.8295
85.8295
100.781
85.8295
85.8295
100.781
85.8295
85.8295
100.781
85.8295
85.8295
100.781
85.8295
85.8295
100.781
85.8295
85.8295
100.781
85.8295
85.8295
100.781
85.8295
85.8295
100.781
85.8295
85.8295
100.781
85.8295
85.8295
100.781
85.8295
85.8295
100.781
85.8295
85.8295
100.781
85.8263
85.8264
87.9888
87.9876
87.9863
87.985
87.9837
87.9824
87.9811
87.9798
87.9784
87.977
87.9756
87.9742
87.9728
87.9714
87.9699
87.9685
87.967
87.9655
87.9639
87.9624
87.9609
88.0444
89.9312
89.9433
89.9557
89.9683
89.981
89.9939
90.007
90.0203
90.0338
90.0475
90.0614
90.0756
90.0899
90.1045
90.1192
90.1343
90.1495
90.165
90.1807
90.1967
90.213
90.2986
89.8339
89.8453
89.8568
89.8685
89.8803
89.8924
89.9046
89.9169
89.9295
89.9422
89.9551
89.9683
89.9816
89.9951
90.0088
90.0228
90.0369
90.0513
90.0659
90.0808
90.0959
90.1813
89.7596
89.7704
89.7814
89.7925
89.8039
89.8153
89.827
89.8388
89.8507
89.8629
89.8752
89.8877
89.9004
89.9133
89.9264
89.9397
89.9532
89.967
89.9809
89.9951
90.0094
90.0949
89.6853
89.6956
89.706
89.7167
89.7274
89.7383
89.7494
89.7606
89.772
89.7836
89.7953
89.8073
89.8193
89.8316
89.8441
89.8568
89.8696
89.8827
89.8959
89.9094
89.9231
90.0085
89.611
89.6208
89.6307
89.6408
89.651
89.6614
89.6719
89.6826
89.6934
89.7044
89.7155
89.7268
89.7383
89.75
89.7618
89.7738
89.786
89.7984
89.811
89.8238
89.8368
89.9221
89.5368
89.5461
89.5555
89.565
89.5747
89.5845
89.5945
89.6046
89.6148
89.6252
89.6358
89.6465
89.6574
89.6684
89.6796
89.691
89.7025
89.7143
89.7262
89.7383
89.7506
89.8358
89.4626
89.4714
89.4803
89.4893
89.4984
89.5077
89.5171
89.5266
89.5363
89.5461
89.5561
89.5662
89.5764
89.5869
89.5975
89.6082
89.6191
89.6302
89.6415
89.6529
89.6645
89.7496
89.3885
89.3968
89.4051
89.4136
89.4222
89.4309
89.4397
89.4487
89.4578
89.4671
89.4764
89.4859
89.4956
89.5054
89.5154
89.5255
89.5357
89.5462
89.5568
89.5675
89.5785
89.6635
89.3145
89.3222
89.33
89.338
89.346
89.3542
89.3625
89.3709
89.3794
89.3881
89.3969
89.4058
89.4148
89.424
89.4333
89.4428
89.4524
89.4622
89.4721
89.4822
89.4925
89.5775
89.2406
89.2478
89.2552
89.2626
89.2701
89.2777
89.2854
89.2933
89.3012
89.3093
89.3175
89.3258
89.3343
89.3429
89.3516
89.3604
89.3694
89.3785
89.3878
89.3972
89.4068
89.4917
89.1669
89.1735
89.1803
89.1872
89.1942
89.2013
89.2085
89.2157
89.2231
89.2306
89.2382
89.246
89.2538
89.2618
89.2699
89.2781
89.2864
89.2949
89.3035
89.3122
89.3211
89.4059
89.0931
89.0993
89.1056
89.1119
89.1184
89.1249
89.1315
89.1383
89.1451
89.152
89.159
89.1662
89.1734
89.1808
89.1882
89.1958
89.2035
89.2113
89.2193
89.2273
89.2355
89.3203
89.0195
89.0251
89.0309
89.0367
89.0426
89.0486
89.0547
89.0608
89.0671
89.0734
89.0799
89.0864
89.0931
89.0998
89.1066
89.1136
89.1206
89.1278
89.1351
89.1425
89.15
89.2347
88.9458
88.951
88.9562
88.9615
88.9669
88.9723
88.9779
88.9835
88.9892
88.9949
89.0008
89.0067
89.0128
89.0189
89.0251
89.0314
89.0379
89.0444
89.051
89.0577
89.0646
89.1492
88.8723
88.8769
88.8816
88.8864
88.8912
88.8961
88.9011
88.9062
88.9113
88.9165
88.9218
88.9271
88.9326
88.9381
88.9437
88.9494
88.9552
88.961
88.967
88.9731
88.9792
89.0638
88.7987
88.8029
88.8071
88.8113
88.8156
88.82
88.8244
88.8289
88.8335
88.8381
88.8428
88.8476
88.8524
88.8573
88.8623
88.8674
88.8725
88.8777
88.883
88.8884
88.8939
88.9784
88.7253
88.7289
88.7326
88.7363
88.7401
88.7439
88.7478
88.7517
88.7557
88.7598
88.7639
88.7681
88.7723
88.7766
88.781
88.7854
88.7899
88.7945
88.7992
88.8039
88.8087
88.8931
88.6519
88.655
88.6581
88.6613
88.6646
88.6679
88.6712
88.6746
88.678
88.6815
88.685
88.6886
88.6923
88.696
88.6997
88.7035
88.7074
88.7114
88.7154
88.7194
88.7235
88.8079
88.5785
88.5811
88.5838
88.5864
88.5891
88.5919
88.5947
88.5975
88.6004
88.6033
88.6063
88.6093
88.6123
88.6154
88.6185
88.6217
88.625
88.6283
88.6316
88.635
88.6385
88.7227
88.5052
88.5073
88.5094
88.5116
88.5138
88.516
88.5182
88.5205
88.5228
88.5252
88.5275
88.53
88.5324
88.5349
88.5374
88.54
88.5426
88.5453
88.5479
88.5507
88.5535
88.6376
88.432
88.4336
88.4352
88.4368
88.4384
88.4401
88.4418
88.4435
88.4453
88.4471
88.4489
88.4507
88.4526
88.4545
88.4564
88.4583
88.4603
88.4623
88.4643
88.4664
88.4685
88.5526
88.3588
88.3599
88.3609
88.3621
88.3632
88.3643
88.3655
88.3667
88.3678
88.3691
88.3703
88.3715
88.3728
88.3741
88.3754
88.3767
88.3781
88.3794
88.3808
88.3822
88.3837
88.4677
88.2856
88.2862
88.2868
88.2874
88.288
88.2886
88.2892
88.2898
88.2905
88.2911
88.2918
88.2924
88.2931
88.2938
88.2945
88.2952
88.2959
88.2966
88.2974
88.2981
88.2989
88.3829
88.2097
88.2098
88.2098
88.2099
88.2099
88.21
88.21
88.2101
88.2101
88.2102
88.2102
88.2103
88.2104
88.2104
88.2105
88.2105
88.2106
88.2107
88.2107
88.2108
88.2109
88.2949
)
;

boundaryField
{
    inlet
    {
        type            calculated;
        value           uniform 0;
    }
    outlet2
    {
        type            calculated;
        value           uniform 0;
    }
    outlet1
    {
        type            calculated;
        value           uniform 0;
    }
    wall
    {
        type            calculated;
        value           uniform 0;
    }
    symmetryBottom
    {
        type            symmetry;
    }
    symmetryZ0
    {
        type            symmetry;
    }
    symmetryZ05
    {
        type            symmetry;
    }
}


// ************************************************************************* //
