/*--------------------------------*- C++ -*----------------------------------*\
| =========                 |                                                 |
| \\      /  F ield         | OpenFOAM: The Open Source CFD Toolbox           |
|  \\    /   O peration     | Version:  2412                                  |
|   \\  /    A nd           | Website:  www.openfoam.com                      |
|    \\/     M anipulation  |                                                 |
\*---------------------------------------------------------------------------*/
FoamFile
{
    version     2.0;
    format      ascii;
    arch        "LSB;label=32;scalar=64";
    class       volScalarField;
    location    "9.13819e-07";
    object      E_dof1;
}
// * * * * * * * * * * * * * * * * * * * * * * * * * * * * * * * * * * * * * //

dimensions      [0 0 0 0 0 0 0];

internalField   nonuniform List<scalar> 
625
(
39.5761
-1.62112e-06
-0.0196256
39.5765
-1.62109e-06
-0.00372722
39.5766
-1.62112e-06
-0.00905759
39.5766
-1.62112e-06
-0.0090398
39.5766
-1.62112e-06
-0.00903984
39.5766
-1.62112e-06
-0.00903984
39.5766
-1.62112e-06
-0.00903984
39.5766
-1.62112e-06
-0.00903984
39.5766
-1.62112e-06
-0.00903984
39.5766
-1.62112e-06
-0.00903984
39.5766
-1.62112e-06
-0.00903984
39.5766
-1.62112e-06
-0.00903984
39.5766
-1.62112e-06
-0.00903984
39.5766
-1.62112e-06
-0.00903984
39.5766
-1.62112e-06
-0.00903984
39.5766
-1.62112e-06
-0.00903984
39.5766
-1.62112e-06
-0.00903984
39.5766
-1.62112e-06
-0.00903984
39.5766
-1.62112e-06
-0.00903984
39.5766
-1.62112e-06
-0.00903984
39.5766
-1.62112e-06
-0.00903984
39.5766
-1.62112e-06
-0.00903984
39.5766
-1.62112e-06
-0.00903951
39.5766
-1.62112e-06
-0.00920086
39.5857
-1.6218e-06
-0.000753741
-0.0976849
-0.0983574
-0.0990392
-0.0997305
-0.100432
-0.101143
-0.101864
-0.102595
-0.103337
-0.10409
-0.104854
-0.105629
-0.106416
-0.107215
-0.108025
-0.108848
-0.109684
-0.110532
-0.111394
-0.11227
-0.113159
-6.82609
-0.0997207
-0.100421
-0.101132
-0.101853
-0.102584
-0.103326
-0.104079
-0.104842
-0.105617
-0.106404
-0.107202
-0.108012
-0.108835
-0.10967
-0.110518
-0.11138
-0.112255
-0.113143
-0.114046
-0.114964
-0.115896
0.197277
-0.099647
-0.100347
-0.101056
-0.101776
-0.102506
-0.103247
-0.103998
-0.104761
-0.105535
-0.10632
-0.107117
-0.107926
-0.108747
-0.109581
-0.110428
-0.111288
-0.112161
-0.113049
-0.11395
-0.114866
-0.115797
0.105907
-0.099574
-0.100273
-0.100981
-0.1017
-0.102429
-0.103169
-0.103919
-0.10468
-0.105453
-0.106237
-0.107032
-0.10784
-0.10866
-0.109493
-0.110338
-0.111197
-0.112069
-0.112955
-0.113855
-0.114769
-0.115699
0.106691
-0.0995009
-0.100199
-0.100906
-0.101624
-0.102352
-0.10309
-0.103839
-0.1046
-0.105371
-0.106154
-0.106948
-0.107755
-0.108574
-0.109405
-0.110249
-0.111106
-0.111977
-0.112861
-0.11376
-0.114673
-0.1156
0.107508
-0.099428
-0.100125
-0.100831
-0.101548
-0.102275
-0.103012
-0.10376
-0.104519
-0.105289
-0.106071
-0.106864
-0.107669
-0.108487
-0.109317
-0.110159
-0.111015
-0.111885
-0.112768
-0.113665
-0.114576
-0.115502
0.108342
-0.099355
-0.100051
-0.100756
-0.101472
-0.102198
-0.102934
-0.103681
-0.104438
-0.105207
-0.105988
-0.10678
-0.107584
-0.1084
-0.109229
-0.11007
-0.110925
-0.111792
-0.112674
-0.113569
-0.114479
-0.115404
0.109198
-0.0992821
-0.0999768
-0.100681
-0.101396
-0.10212
-0.102856
-0.103601
-0.104358
-0.105126
-0.105905
-0.106696
-0.107498
-0.108313
-0.109141
-0.109981
-0.110834
-0.1117
-0.11258
-0.113474
-0.114383
-0.115306
0.110074
-0.0992092
-0.099903
-0.100606
-0.10132
-0.102043
-0.102777
-0.103522
-0.104277
-0.105044
-0.105822
-0.106612
-0.107413
-0.108227
-0.109053
-0.109891
-0.110743
-0.111608
-0.112487
-0.113379
-0.114286
-0.115208
0.110972
-0.0991364
-0.099829
-0.100531
-0.101244
-0.101966
-0.102699
-0.103443
-0.104197
-0.104963
-0.105739
-0.106528
-0.107328
-0.10814
-0.108965
-0.109802
-0.110653
-0.111516
-0.112393
-0.113284
-0.11419
-0.11511
0.111874
-0.0990623
-0.0997539
-0.100455
-0.101167
-0.101888
-0.10262
-0.103362
-0.104115
-0.104879
-0.105655
-0.106442
-0.107241
-0.108052
-0.108875
-0.109711
-0.11056
-0.111423
-0.112298
-0.113188
-0.114092
-0.11501
0.112188
-0.0989883
-0.0996788
-0.100379
-0.101089
-0.10181
-0.10254
-0.103282
-0.104034
-0.104797
-0.105571
-0.106357
-0.107154
-0.107964
-0.108786
-0.109621
-0.110468
-0.111329
-0.112203
-0.113091
-0.113994
-0.11491
0.112462
-0.0989142
-0.0996038
-0.100303
-0.101012
-0.101731
-0.102461
-0.103201
-0.103952
-0.104714
-0.105487
-0.106271
-0.107068
-0.107876
-0.108697
-0.10953
-0.110376
-0.111236
-0.112108
-0.112995
-0.113896
-0.114811
0.112744
-0.0988403
-0.0995288
-0.100227
-0.100935
-0.101653
-0.102382
-0.103121
-0.10387
-0.104631
-0.105403
-0.106186
-0.106981
-0.107788
-0.108608
-0.10944
-0.110284
-0.111142
-0.112013
-0.112899
-0.113798
-0.114711
0.113035
-0.0987664
-0.0994538
-0.100151
-0.100858
-0.101575
-0.102302
-0.10304
-0.103789
-0.104548
-0.105319
-0.106101
-0.106895
-0.1077
-0.108518
-0.109349
-0.110192
-0.111049
-0.111919
-0.112802
-0.1137
-0.114612
0.113334
-0.0986925
-0.099379
-0.100075
-0.100781
-0.101497
-0.102223
-0.10296
-0.103707
-0.104465
-0.105235
-0.106016
-0.106808
-0.107613
-0.108429
-0.109259
-0.1101
-0.110956
-0.111824
-0.112706
-0.113602
-0.114513
0.113642
-0.0986187
-0.0993041
-0.0999992
-0.100704
-0.101419
-0.102144
-0.102879
-0.103626
-0.104383
-0.105151
-0.10593
-0.106722
-0.107525
-0.10834
-0.109168
-0.110009
-0.110862
-0.111729
-0.11261
-0.113505
-0.114413
0.113958
-0.0985449
-0.0992293
-0.0999233
-0.100627
-0.101341
-0.102065
-0.102799
-0.103544
-0.1043
-0.105067
-0.105845
-0.106635
-0.107437
-0.108251
-0.109078
-0.109917
-0.110769
-0.111635
-0.112514
-0.113407
-0.114314
0.114283
-0.0984711
-0.0991545
-0.0998475
-0.10055
-0.101263
-0.101986
-0.102719
-0.103463
-0.104217
-0.104983
-0.10576
-0.106549
-0.10735
-0.108162
-0.108987
-0.109825
-0.110676
-0.11154
-0.112418
-0.113309
-0.114215
0.114616
-0.0983974
-0.0990799
-0.0997717
-0.100473
-0.101185
-0.101907
-0.102639
-0.103381
-0.104135
-0.1049
-0.105675
-0.106463
-0.107262
-0.108073
-0.108897
-0.109734
-0.110583
-0.111446
-0.112322
-0.113212
-0.114116
0.114958
-0.0983238
-0.0990051
-0.099696
-0.100397
-0.101107
-0.101828
-0.102559
-0.1033
-0.104052
-0.104816
-0.10559
-0.106377
-0.107175
-0.107985
-0.108807
-0.109642
-0.11049
-0.111351
-0.112226
-0.113114
-0.114017
0.115308
-0.0982502
-0.0989305
-0.0996203
-0.10032
-0.101029
-0.101749
-0.102479
-0.103219
-0.10397
-0.104732
-0.105506
-0.106291
-0.107087
-0.107896
-0.108717
-0.109551
-0.110397
-0.111257
-0.11213
-0.113017
-0.113918
0.115666
-0.0981766
-0.0988559
-0.0995447
-0.100243
-0.100951
-0.10167
-0.102399
-0.103138
-0.103888
-0.104649
-0.105421
-0.106204
-0.107
-0.107807
-0.108627
-0.109459
-0.110304
-0.111162
-0.112034
-0.11292
-0.113819
0.116033
-0.0981031
-0.0987815
-0.0994691
-0.100167
-0.100874
-0.101591
-0.102319
-0.103057
-0.103805
-0.104565
-0.105336
-0.106118
-0.106913
-0.107719
-0.108537
-0.109368
-0.110212
-0.111068
-0.111939
-0.112822
-0.113721
0.116372
-0.09805
-0.0987275
-0.0994145
-0.100111
-0.100818
-0.101534
-0.102261
-0.102998
-0.103746
-0.104505
-0.105275
-0.106056
-0.106849
-0.107655
-0.108472
-0.109302
-0.110144
-0.111
-0.111869
-0.112752
-0.113649
0.126163
)
;

boundaryField
{
    inlet
    {
        type            calculated;
        value           uniform 0;
    }
    outlet2
    {
        type            calculated;
        value           uniform 0;
    }
    outlet1
    {
        type            calculated;
        value           uniform 0;
    }
    wall
    {
        type            calculated;
        value           uniform 0;
    }
    symmetryBottom
    {
        type            symmetry;
    }
    symmetryZ0
    {
        type            symmetry;
    }
    symmetryZ05
    {
        type            symmetry;
    }
}


// ************************************************************************* //
