/*--------------------------------*- C++ -*----------------------------------*\
| =========                 |                                                 |
| \\      /  F ield         | OpenFOAM: The Open Source CFD Toolbox           |
|  \\    /   O peration     | Version:  2412                                  |
|   \\  /    A nd           | Website:  www.openfoam.com                      |
|    \\/     M anipulation  |                                                 |
\*---------------------------------------------------------------------------*/
FoamFile
{
    version     2.0;
    format      ascii;
    arch        "LSB;label=32;scalar=64";
    class       volScalarField;
    location    "9.13819e-07";
    object      E_dof0;
}
// * * * * * * * * * * * * * * * * * * * * * * * * * * * * * * * * * * * * * //

dimensions      [0 0 0 0 0 0 0];

internalField   nonuniform List<scalar> 
625
(
100.781
85.8294
85.8294
100.783
85.8312
85.8312
100.781
85.8295
85.8295
100.781
85.8295
85.8295
100.781
85.8295
85.8295
100.781
85.8295
85.8295
100.781
85.8295
85.8295
100.781
85.8295
85.8295
100.781
85.8295
85.8295
100.781
85.8295
85.8295
100.781
85.8295
85.8295
100.781
85.8295
85.8295
100.781
85.8295
85.8295
100.781
85.8295
85.8295
100.781
85.8295
85.8295
100.781
85.8295
85.8295
100.781
85.8295
85.8295
100.781
85.8295
85.8295
100.781
85.8295
85.8295
100.781
85.8295
85.8295
100.781
85.8295
85.8295
100.781
85.8295
85.8295
100.781
85.8295
85.8295
100.781
85.8295
85.8295
100.781
85.8263
85.8264
87.9889
87.9877
87.9864
87.9851
87.9838
87.9825
87.9812
87.9799
87.9785
87.9772
87.9758
87.9744
87.9729
87.9715
87.9701
87.9686
87.9671
87.9656
87.9641
87.9626
87.961
88.0453
89.9313
89.9435
89.9558
89.9684
89.9811
89.994
90.0072
90.0205
90.034
90.0477
90.0616
90.0757
90.09
90.1046
90.1194
90.1344
90.1496
90.1651
90.1809
90.1969
90.2132
90.2995
89.8341
89.8454
89.8569
89.8686
89.8805
89.8925
89.9047
89.9171
89.9296
89.9423
89.9553
89.9684
89.9817
89.9952
90.009
90.0229
90.0371
90.0515
90.0661
90.0809
90.096
90.1823
89.7597
89.7705
89.7815
89.7927
89.804
89.8154
89.8271
89.8389
89.8509
89.863
89.8753
89.8879
89.9006
89.9135
89.9266
89.9399
89.9534
89.9671
89.981
89.9952
90.0096
90.0958
89.6854
89.6957
89.7062
89.7168
89.7275
89.7384
89.7495
89.7608
89.7722
89.7837
89.7955
89.8074
89.8195
89.8318
89.8442
89.8569
89.8698
89.8828
89.8961
89.9096
89.9233
90.0094
89.6111
89.6209
89.6308
89.6409
89.6511
89.6615
89.672
89.6827
89.6935
89.7045
89.7157
89.727
89.7385
89.7501
89.762
89.774
89.7862
89.7986
89.8112
89.824
89.837
89.9231
89.5369
89.5462
89.5556
89.5651
89.5748
89.5846
89.5946
89.6047
89.6149
89.6253
89.6359
89.6466
89.6575
89.6685
89.6797
89.6911
89.7027
89.7144
89.7264
89.7385
89.7508
89.8368
89.4627
89.4715
89.4804
89.4894
89.4985
89.5078
89.5172
89.5267
89.5364
89.5462
89.5562
89.5663
89.5766
89.587
89.5976
89.6083
89.6193
89.6303
89.6416
89.653
89.6647
89.7506
89.3886
89.3969
89.4052
89.4137
89.4223
89.431
89.4399
89.4488
89.4579
89.4672
89.4766
89.4861
89.4957
89.5055
89.5155
89.5256
89.5359
89.5463
89.5569
89.5677
89.5786
89.6645
89.3146
89.3223
89.3301
89.3381
89.3461
89.3543
89.3626
89.371
89.3795
89.3882
89.397
89.4059
89.415
89.4242
89.4335
89.443
89.4526
89.4624
89.4723
89.4824
89.4926
89.5784
89.2408
89.248
89.2553
89.2627
89.2702
89.2778
89.2856
89.2934
89.3014
89.3095
89.3177
89.326
89.3344
89.343
89.3517
89.3606
89.3695
89.3787
89.3879
89.3973
89.4069
89.4926
89.167
89.1737
89.1804
89.1873
89.1943
89.2014
89.2086
89.2159
89.2233
89.2308
89.2384
89.2461
89.254
89.2619
89.27
89.2782
89.2866
89.295
89.3036
89.3124
89.3213
89.4069
89.0932
89.0994
89.1057
89.112
89.1185
89.125
89.1316
89.1384
89.1452
89.1521
89.1592
89.1663
89.1735
89.1809
89.1884
89.1959
89.2036
89.2115
89.2194
89.2275
89.2357
89.3212
89.0196
89.0252
89.031
89.0368
89.0427
89.0487
89.0548
89.061
89.0672
89.0736
89.08
89.0866
89.0932
89.0999
89.1068
89.1137
89.1208
89.128
89.1352
89.1426
89.1502
89.2356
88.9459
88.9511
88.9563
88.9616
88.967
88.9724
88.978
88.9836
88.9893
88.9951
89.0009
89.0069
89.0129
89.019
89.0253
89.0316
89.038
89.0445
89.0512
89.0579
89.0647
89.1501
88.8724
88.877
88.8817
88.8865
88.8913
88.8962
88.9012
88.9063
88.9114
88.9166
88.9219
88.9272
88.9327
88.9382
88.9438
88.9495
88.9553
88.9612
88.9671
88.9732
88.9794
89.0647
88.7989
88.803
88.8072
88.8114
88.8157
88.8201
88.8245
88.829
88.8336
88.8382
88.8429
88.8477
88.8525
88.8574
88.8624
88.8675
88.8727
88.8779
88.8832
88.8886
88.8941
88.9793
88.7254
88.729
88.7327
88.7364
88.7402
88.744
88.7479
88.7518
88.7558
88.7599
88.764
88.7682
88.7724
88.7767
88.7811
88.7856
88.7901
88.7947
88.7993
88.804
88.8088
88.894
88.652
88.6551
88.6583
88.6615
88.6647
88.668
88.6713
88.6747
88.6781
88.6816
88.6852
88.6888
88.6924
88.6961
88.6999
88.7037
88.7076
88.7115
88.7155
88.7196
88.7237
88.8088
88.5786
88.5812
88.5839
88.5865
88.5893
88.592
88.5948
88.5976
88.6005
88.6034
88.6064
88.6094
88.6124
88.6155
88.6187
88.6219
88.6251
88.6284
88.6318
88.6352
88.6386
88.7237
88.5053
88.5074
88.5095
88.5117
88.5139
88.5161
88.5183
88.5206
88.5229
88.5253
88.5277
88.5301
88.5325
88.535
88.5376
88.5401
88.5427
88.5454
88.5481
88.5508
88.5536
88.6386
88.4321
88.4337
88.4353
88.4369
88.4386
88.4402
88.4419
88.4437
88.4454
88.4472
88.449
88.4508
88.4527
88.4546
88.4565
88.4585
88.4604
88.4624
88.4645
88.4666
88.4687
88.5536
88.3589
88.36
88.3611
88.3622
88.3633
88.3644
88.3656
88.3668
88.368
88.3692
88.3704
88.3717
88.3729
88.3742
88.3755
88.3768
88.3782
88.3796
88.381
88.3824
88.3838
88.4686
88.2858
88.2863
88.2869
88.2875
88.2881
88.2887
88.2893
88.29
88.2906
88.2912
88.2919
88.2925
88.2932
88.2939
88.2946
88.2953
88.296
88.2968
88.2975
88.2983
88.299
88.3838
88.2098
88.2099
88.2099
88.21
88.21
88.2101
88.2102
88.2102
88.2103
88.2103
88.2104
88.2104
88.2105
88.2106
88.2106
88.2107
88.2107
88.2108
88.2109
88.211
88.211
88.2958
)
;

boundaryField
{
    inlet
    {
        type            calculated;
        value           uniform 99.4306;
    }
    outlet2
    {
        type            calculated;
        value           uniform 99.4306;
    }
    outlet1
    {
        type            calculated;
        value           uniform 99.4306;
    }
    wall
    {
        type            calculated;
        value           uniform 99.4306;
    }
    symmetryBottom
    {
        type            symmetry;
    }
    symmetryZ0
    {
        type            symmetry;
    }
    symmetryZ05
    {
        type            symmetry;
    }
}


// ************************************************************************* //
