/*--------------------------------*- C++ -*----------------------------------*\
| =========                 |                                                 |
| \\      /  F ield         | OpenFOAM: The Open Source CFD Toolbox           |
|  \\    /   O peration     | Version:  2412                                  |
|   \\  /    A nd           | Website:  www.openfoam.com                      |
|    \\/     M anipulation  |                                                 |
\*---------------------------------------------------------------------------*/
FoamFile
{
    version     2.0;
    format      ascii;
    arch        "LSB;label=32;scalar=64";
    class       volScalarField;
    location    "9.13819e-07";
    object      E_dof3;
}
// * * * * * * * * * * * * * * * * * * * * * * * * * * * * * * * * * * * * * //

dimensions      [0 0 0 0 0 0 0];

internalField   nonuniform List<scalar> 
625
(
0.705858
0.635406
0.556024
0.70587
0.635417
0.556034
0.70587
0.635417
0.556033
0.70587
0.635417
0.556033
0.70587
0.635417
0.556033
0.70587
0.635417
0.556033
0.70587
0.635417
0.556033
0.70587
0.635417
0.556033
0.70587
0.635417
0.556033
0.70587
0.635417
0.556033
0.70587
0.635417
0.556033
0.70587
0.635417
0.556033
0.70587
0.635417
0.556033
0.70587
0.635417
0.556033
0.70587
0.635417
0.556033
0.70587
0.635417
0.556033
0.70587
0.635417
0.556033
0.70587
0.635417
0.556033
0.70587
0.635417
0.556033
0.70587
0.635417
0.556033
0.70587
0.635417
0.556033
0.70587
0.635417
0.556033
0.70587
0.635417
0.556033
0.70587
0.635418
0.5554
0.706043
0.63556
0.634622
0.651445
0.651444
0.651442
0.651441
0.651439
0.651438
0.651436
0.651435
0.651433
0.651432
0.65143
0.651429
0.651427
0.651425
0.651424
0.651422
0.65142
0.651419
0.651417
0.651415
0.651413
0.693775
0.664893
0.664986
0.665079
0.665174
0.665271
0.665369
0.665468
0.665568
0.66567
0.665774
0.665879
0.665986
0.666094
0.666204
0.666316
0.666429
0.666544
0.666661
0.66678
0.666901
0.667024
0.710557
0.664413
0.664502
0.664592
0.664684
0.664776
0.664871
0.664966
0.665063
0.665161
0.665261
0.665362
0.665465
0.66557
0.665675
0.665783
0.665892
0.666003
0.666116
0.66623
0.666347
0.666465
0.709949
0.663933
0.664018
0.664105
0.664193
0.664282
0.664373
0.664465
0.664558
0.664653
0.664749
0.664846
0.664945
0.665046
0.665148
0.665251
0.665356
0.665463
0.665571
0.665681
0.665793
0.665907
0.709346
0.663453
0.663535
0.663619
0.663703
0.663789
0.663876
0.663964
0.664054
0.664145
0.664237
0.664331
0.664426
0.664522
0.66462
0.664719
0.66482
0.664923
0.665027
0.665133
0.66524
0.665349
0.708743
0.662973
0.663052
0.663132
0.663213
0.663296
0.663379
0.663464
0.66355
0.663637
0.663725
0.663815
0.663906
0.663999
0.664093
0.664188
0.664285
0.664383
0.664483
0.664584
0.664687
0.664792
0.708141
0.662494
0.66257
0.662646
0.662724
0.662803
0.662883
0.662964
0.663046
0.663129
0.663214
0.6633
0.663387
0.663476
0.663566
0.663657
0.66375
0.663844
0.663939
0.664037
0.664135
0.664235
0.707539
0.662015
0.662087
0.66216
0.662235
0.66231
0.662386
0.662464
0.662542
0.662622
0.662703
0.662785
0.662869
0.662953
0.663039
0.663126
0.663215
0.663305
0.663396
0.663489
0.663583
0.663679
0.706938
0.661536
0.661605
0.661675
0.661746
0.661818
0.66189
0.661964
0.662039
0.662115
0.662192
0.662271
0.66235
0.662431
0.662513
0.662596
0.66268
0.662766
0.662853
0.662942
0.663032
0.663123
0.706337
0.661058
0.661123
0.66119
0.661257
0.661325
0.661394
0.661465
0.661536
0.661608
0.661682
0.661756
0.661832
0.661909
0.661987
0.662066
0.662146
0.662228
0.66231
0.662395
0.66248
0.662567
0.705736
0.66057
0.660632
0.660695
0.660759
0.660823
0.660889
0.660956
0.661023
0.661092
0.661161
0.661232
0.661304
0.661376
0.66145
0.661525
0.661601
0.661679
0.661757
0.661837
0.661918
0.662
0.705125
0.660082
0.660141
0.6602
0.660261
0.660322
0.660384
0.660447
0.660511
0.660575
0.660641
0.660708
0.660776
0.660844
0.660914
0.660985
0.661057
0.66113
0.661204
0.66128
0.661356
0.661434
0.704514
0.659595
0.65965
0.659706
0.659763
0.659821
0.659879
0.659938
0.659998
0.66006
0.660121
0.660184
0.660248
0.660313
0.660379
0.660445
0.660513
0.660582
0.660652
0.660723
0.660795
0.660868
0.703904
0.659108
0.65916
0.659212
0.659266
0.65932
0.659374
0.65943
0.659487
0.659544
0.659602
0.659661
0.659721
0.659782
0.659843
0.659906
0.65997
0.660034
0.6601
0.660166
0.660234
0.660303
0.703294
0.658621
0.65867
0.658719
0.658768
0.658819
0.65887
0.658922
0.658975
0.659029
0.659083
0.659138
0.659194
0.659251
0.659308
0.659367
0.659426
0.659487
0.659548
0.65961
0.659673
0.659738
0.702685
0.658135
0.65818
0.658225
0.658272
0.658319
0.658366
0.658415
0.658464
0.658513
0.658564
0.658615
0.658667
0.65872
0.658774
0.658828
0.658883
0.65894
0.658997
0.659054
0.659113
0.659173
0.702076
0.657648
0.65769
0.657732
0.657775
0.657819
0.657863
0.657907
0.657953
0.657999
0.658045
0.658093
0.658141
0.65819
0.658239
0.65829
0.658341
0.658393
0.658445
0.658499
0.658553
0.658609
0.701468
0.657162
0.657201
0.65724
0.657279
0.657319
0.657359
0.6574
0.657442
0.657484
0.657527
0.657571
0.657615
0.65766
0.657705
0.657752
0.657799
0.657846
0.657895
0.657944
0.657994
0.658045
0.700859
0.656677
0.656712
0.656747
0.656783
0.656819
0.656856
0.656894
0.656932
0.65697
0.657009
0.657049
0.657089
0.65713
0.657172
0.657214
0.657257
0.6573
0.657344
0.657389
0.657435
0.657481
0.700252
0.656191
0.656223
0.656255
0.656287
0.65632
0.656354
0.656387
0.656422
0.656457
0.656492
0.656528
0.656564
0.656601
0.656639
0.656677
0.656715
0.656755
0.656795
0.656835
0.656876
0.656918
0.699645
0.655706
0.655734
0.655763
0.655792
0.655821
0.655851
0.655881
0.655912
0.655943
0.655975
0.656007
0.656039
0.656072
0.656106
0.65614
0.656174
0.656209
0.656245
0.656281
0.656318
0.656355
0.699038
0.655222
0.655246
0.655271
0.655297
0.655323
0.655349
0.655376
0.655403
0.65543
0.655458
0.655486
0.655515
0.655544
0.655573
0.655603
0.655633
0.655664
0.655696
0.655728
0.65576
0.655793
0.698431
0.654737
0.654758
0.65478
0.654802
0.654825
0.654847
0.65487
0.654893
0.654917
0.654941
0.654966
0.65499
0.655015
0.655041
0.655067
0.655093
0.65512
0.655147
0.655174
0.655202
0.655231
0.697825
0.654253
0.654271
0.654289
0.654308
0.654327
0.654346
0.654365
0.654385
0.654405
0.654425
0.654446
0.654467
0.654488
0.654509
0.654531
0.654553
0.654576
0.654599
0.654622
0.654646
0.654669
0.69722
0.653919
0.653935
0.653951
0.653967
0.653984
0.654
0.654017
0.654035
0.654052
0.65407
0.654088
0.654106
0.654124
0.654143
0.654162
0.654181
0.654201
0.654221
0.654241
0.654262
0.654283
0.696783
)
;

boundaryField
{
    inlet
    {
        type            calculated;
        value           uniform 0;
    }
    outlet2
    {
        type            calculated;
        value           uniform 0;
    }
    outlet1
    {
        type            calculated;
        value           uniform 0;
    }
    wall
    {
        type            calculated;
        value           uniform 0;
    }
    symmetryBottom
    {
        type            symmetry;
    }
    symmetryZ0
    {
        type            symmetry;
    }
    symmetryZ05
    {
        type            symmetry;
    }
}


// ************************************************************************* //
