/*--------------------------------*- C++ -*----------------------------------*\
| =========                 |                                                 |
| \\      /  F ield         | OpenFOAM: The Open Source CFD Toolbox           |
|  \\    /   O peration     | Version:  2412                                  |
|   \\  /    A nd           | Website:  www.openfoam.com                      |
|    \\/     M anipulation  |                                                 |
\*---------------------------------------------------------------------------*/
FoamFile
{
    version     2.0;
    format      ascii;
    arch        "LSB;label=32;scalar=64";
    class       volScalarField;
    location    "9.13819e-07";
    object      E_dof2;
}
// * * * * * * * * * * * * * * * * * * * * * * * * * * * * * * * * * * * * * //

dimensions      [0 0 0 0 0 0 0];

internalField   nonuniform List<scalar> 
625
(
0.00994776
0.019599
-9.74213e-05
-0.00741483
0.00349247
-0.000414523
-0.00163515
0.00882223
-0.000414021
-0.00165419
0.00880444
-0.000414022
-0.00165415
0.00880448
-0.000414022
-0.00165415
0.00880448
-0.000414022
-0.00165415
0.00880448
-0.000414022
-0.00165415
0.00880448
-0.000414022
-0.00165415
0.00880448
-0.000414022
-0.00165415
0.00880448
-0.000414022
-0.00165415
0.00880448
-0.000414022
-0.00165415
0.00880448
-0.000414022
-0.00165415
0.00880448
-0.000414022
-0.00165415
0.00880448
-0.000414022
-0.00165415
0.00880448
-0.000414022
-0.00165415
0.00880448
-0.000414022
-0.00165415
0.00880448
-0.000414022
-0.00165415
0.00880448
-0.000414022
-0.00165415
0.00880448
-0.000414022
-0.00165415
0.00880448
-0.000414022
-0.00165415
0.00880448
-0.000414022
-0.00165415
0.00880448
-0.000414022
-0.00165414
0.00880444
-0.000413362
-0.00165615
0.00883444
0.000362317
-0.0005598
-0.000596928
-0.000756517
5.89386
5.93419
5.97508
6.01653
6.05856
6.10119
6.14441
6.18825
6.23273
6.27784
6.32361
6.37006
6.41719
6.46502
6.51357
6.56285
6.61288
6.66369
6.71527
6.76767
6.82088
2.77664e-05
-0.157568
-0.159176
-0.160814
-0.162483
-0.164183
-0.165916
-0.167681
-0.16948
-0.171315
-0.173185
-0.175092
-0.177037
-0.17902
-0.181044
-0.183109
-0.185217
-0.187368
-0.189564
-0.191806
-0.194096
-0.196435
-0.000483486
-0.0899331
-0.0905896
-0.0912557
-0.0919317
-0.0926177
-0.093314
-0.0940209
-0.0947385
-0.0954671
-0.0962069
-0.0969583
-0.0977215
-0.0984967
-0.0992843
-0.100085
-0.100898
-0.101724
-0.102564
-0.103418
-0.104287
-0.10517
-0.000489579
-0.0906799
-0.0913389
-0.0920075
-0.0926859
-0.0933744
-0.0940731
-0.0947824
-0.0955024
-0.0962334
-0.0969755
-0.0977293
-0.0984948
-0.0992722
-0.100062
-0.100865
-0.10168
-0.102509
-0.103351
-0.104207
-0.105077
-0.105962
-0.00048919
-0.091443
-0.0921051
-0.0927767
-0.0934582
-0.0941497
-0.0948517
-0.0955639
-0.0962871
-0.0970212
-0.0977666
-0.0985234
-0.099292
-0.100073
-0.100866
-0.101671
-0.10249
-0.103322
-0.104167
-0.105026
-0.1059
-0.106788
-0.000488857
-0.0922195
-0.0928847
-0.0935596
-0.0942443
-0.0949391
-0.0956442
-0.0963598
-0.0970862
-0.0978237
-0.0985722
-0.0993324
-0.100104
-0.100888
-0.101685
-0.102494
-0.103316
-0.104151
-0.105
-0.105862
-0.106739
-0.107631
-0.000488525
-0.0930118
-0.0936805
-0.0943587
-0.095047
-0.0957452
-0.0964538
-0.097173
-0.0979029
-0.0986438
-0.099396
-0.10016
-0.100935
-0.101723
-0.102523
-0.103336
-0.104161
-0.105
-0.105852
-0.106719
-0.107599
-0.108495
-0.000488192
-0.0938201
-0.0944924
-0.0951744
-0.0958662
-0.0965681
-0.0972805
-0.0980033
-0.098737
-0.0994818
-0.100238
-0.101005
-0.101785
-0.102576
-0.10338
-0.104197
-0.105026
-0.105869
-0.106725
-0.107596
-0.108481
-0.10938
-0.00048786
-0.0946444
-0.0953206
-0.0960063
-0.0967021
-0.0974081
-0.0981242
-0.0988512
-0.0995888
-0.100338
-0.101098
-0.101869
-0.102653
-0.103449
-0.104257
-0.105077
-0.105911
-0.106758
-0.107619
-0.108494
-0.109383
-0.110286
-0.000487528
-0.0954684
-0.0961486
-0.0968385
-0.0975384
-0.0982485
-0.098969
-0.0997
-0.100442
-0.101195
-0.10196
-0.102736
-0.103523
-0.104324
-0.105136
-0.105961
-0.1068
-0.107651
-0.108517
-0.109396
-0.11029
-0.111198
-0.00048695
-0.0958015
-0.0964823
-0.0971728
-0.0978733
-0.0985839
-0.0993048
-0.100036
-0.100779
-0.101532
-0.102297
-0.103074
-0.103862
-0.104663
-0.105476
-0.106301
-0.10714
-0.107992
-0.108858
-0.109737
-0.110631
-0.11154
-0.000487024
-0.0961269
-0.096808
-0.0974989
-0.0981995
-0.0989104
-0.0996315
-0.100363
-0.101106
-0.10186
-0.102625
-0.103401
-0.10419
-0.10499
-0.105803
-0.106628
-0.107467
-0.108319
-0.109184
-0.110063
-0.110957
-0.111865
-0.000487453
-0.0964586
-0.0971401
-0.0978312
-0.0985323
-0.0992434
-0.099965
-0.100697
-0.10144
-0.102194
-0.102959
-0.103736
-0.104524
-0.105325
-0.106138
-0.106963
-0.107802
-0.108654
-0.109519
-0.110398
-0.111291
-0.112199
-0.000487828
-0.0967966
-0.0974785
-0.0981701
-0.0988716
-0.0995832
-0.100305
-0.101038
-0.101781
-0.102535
-0.1033
-0.104077
-0.104866
-0.105667
-0.10648
-0.107306
-0.108144
-0.108996
-0.109862
-0.110741
-0.111634
-0.112542
-0.000488202
-0.0971407
-0.0978232
-0.0985154
-0.0992175
-0.0999296
-0.100652
-0.101385
-0.102129
-0.102883
-0.103649
-0.104427
-0.105216
-0.106017
-0.10683
-0.107656
-0.108495
-0.109347
-0.110213
-0.111092
-0.111985
-0.112893
-0.000488576
-0.097491
-0.0981742
-0.098867
-0.0995698
-0.100282
-0.101006
-0.101739
-0.102483
-0.103238
-0.104005
-0.104783
-0.105572
-0.106374
-0.107188
-0.108014
-0.108854
-0.109706
-0.110572
-0.111451
-0.112345
-0.113253
-0.00048895
-0.0978474
-0.0985314
-0.0992251
-0.0999284
-0.100642
-0.101366
-0.1021
-0.102845
-0.103601
-0.104368
-0.105146
-0.105937
-0.106739
-0.107553
-0.10838
-0.10922
-0.110073
-0.110939
-0.111819
-0.112713
-0.113622
-0.000489323
-0.09821
-0.0988948
-0.0995893
-0.100294
-0.101008
-0.101732
-0.102467
-0.103213
-0.10397
-0.104738
-0.105517
-0.106308
-0.107111
-0.107926
-0.108754
-0.109594
-0.110447
-0.111314
-0.112195
-0.113089
-0.113998
-0.000489696
-0.0985786
-0.0992644
-0.0999598
-0.100665
-0.10138
-0.102106
-0.102842
-0.103588
-0.104346
-0.105115
-0.105895
-0.106687
-0.10749
-0.108306
-0.109135
-0.109976
-0.11083
-0.111697
-0.112579
-0.113474
-0.114384
-0.000490067
-0.0989532
-0.0996402
-0.100337
-0.101043
-0.101759
-0.102486
-0.103223
-0.10397
-0.104729
-0.105498
-0.106279
-0.107072
-0.107877
-0.108694
-0.109523
-0.110365
-0.11122
-0.112089
-0.112971
-0.113867
-0.114777
-0.000490439
-0.0993339
-0.100022
-0.10072
-0.101427
-0.102144
-0.102872
-0.10361
-0.104359
-0.105118
-0.105889
-0.106671
-0.107465
-0.108271
-0.109089
-0.109919
-0.110762
-0.111618
-0.112488
-0.113371
-0.114268
-0.115179
-0.000490809
-0.0997205
-0.10041
-0.101109
-0.101817
-0.102536
-0.103265
-0.104004
-0.104754
-0.105515
-0.106287
-0.10707
-0.107865
-0.108672
-0.109491
-0.110323
-0.111167
-0.112024
-0.112895
-0.113779
-0.114677
-0.11559
-0.000491178
-0.100113
-0.100804
-0.101504
-0.102214
-0.102934
-0.103664
-0.104405
-0.105156
-0.105918
-0.106691
-0.107476
-0.108272
-0.109081
-0.109901
-0.110734
-0.111579
-0.112438
-0.11331
-0.114195
-0.115095
-0.116008
-0.000491546
-0.100484
-0.101175
-0.101877
-0.102588
-0.103309
-0.10404
-0.104781
-0.105534
-0.106297
-0.107071
-0.107857
-0.108654
-0.109463
-0.110284
-0.111118
-0.111965
-0.112824
-0.113697
-0.114583
-0.115483
-0.116398
-0.000491945
-0.109348
-0.110101
-0.110863
-0.111637
-0.112421
-0.113216
-0.114023
-0.114841
-0.115671
-0.116513
-0.117367
-0.118234
-0.119114
-0.120008
-0.120914
-0.121835
-0.122769
-0.123718
-0.124682
-0.125661
-0.126655
-0.000502829
)
;

boundaryField
{
    inlet
    {
        type            calculated;
        value           uniform 0;
    }
    outlet2
    {
        type            calculated;
        value           uniform 0;
    }
    outlet1
    {
        type            calculated;
        value           uniform 0;
    }
    wall
    {
        type            calculated;
        value           uniform 0;
    }
    symmetryBottom
    {
        type            symmetry;
    }
    symmetryZ0
    {
        type            symmetry;
    }
    symmetryZ05
    {
        type            symmetry;
    }
}


// ************************************************************************* //
