/*--------------------------------*- C++ -*----------------------------------*\
| =========                 |                                                 |
| \\      /  F ield         | OpenFOAM: The Open Source CFD Toolbox           |
|  \\    /   O peration     | Version:  2412                                  |
|   \\  /    A nd           | Website:  www.openfoam.com                      |
|    \\/     M anipulation  |                                                 |
\*---------------------------------------------------------------------------*/
FoamFile
{
    version     2.0;
    format      ascii;
    arch        "LSB;label=32;scalar=64";
    class       volScalarField;
    location    "9.13819e-07";
    object      p;
}
// * * * * * * * * * * * * * * * * * * * * * * * * * * * * * * * * * * * * * //

dimensions      [0 0 0 0 0 0 0];

internalField   nonuniform List<scalar> 
625
(
1.18399
1.01036
1.01036
1.18409
1.01045
1.01045
1.18406
1.01042
1.01042
1.18406
1.01042
1.01042
1.18406
1.01042
1.01042
1.18406
1.01042
1.01042
1.18406
1.01042
1.01042
1.18406
1.01042
1.01042
1.18406
1.01042
1.01042
1.18406
1.01042
1.01042
1.18406
1.01042
1.01042
1.18406
1.01042
1.01042
1.18406
1.01042
1.01042
1.18406
1.01042
1.01042
1.18406
1.01042
1.01042
1.18406
1.01042
1.01042
1.18406
1.01042
1.01042
1.18406
1.01042
1.01042
1.18406
1.01042
1.01042
1.18406
1.01042
1.01042
1.18406
1.01042
1.01042
1.18406
1.01042
1.01042
1.18406
1.01042
1.01042
1.18406
1.01042
1.01042
1.18406
1.01038
1.01038
1.22524
1.22684
1.22846
1.23012
1.2318
1.23352
1.23526
1.23703
1.23884
1.24068
1.24255
1.24446
1.2464
1.24837
1.25039
1.25244
1.25453
1.25666
1.25884
1.26105
1.26332
1.26449
1.0566
1.05672
1.05684
1.05697
1.05709
1.05721
1.05734
1.05747
1.0576
1.05773
1.05786
1.058
1.05814
1.05827
1.05841
1.05856
1.0587
1.05885
1.059
1.05915
1.0593
1.06031
1.05701
1.05714
1.05727
1.05741
1.05755
1.05769
1.05783
1.05797
1.05812
1.05827
1.05842
1.05857
1.05872
1.05888
1.05904
1.0592
1.05937
1.05954
1.05971
1.05988
1.06005
1.06107
1.05613
1.05626
1.05639
1.05652
1.05665
1.05678
1.05692
1.05705
1.05719
1.05733
1.05748
1.05762
1.05777
1.05792
1.05807
1.05823
1.05838
1.05854
1.0587
1.05887
1.05904
1.06005
1.05527
1.05539
1.05551
1.05563
1.05576
1.05588
1.05601
1.05614
1.05628
1.05641
1.05655
1.05669
1.05683
1.05697
1.05711
1.05726
1.05741
1.05756
1.05772
1.05787
1.05803
1.05904
1.0544
1.05452
1.05463
1.05475
1.05487
1.05499
1.05511
1.05524
1.05536
1.05549
1.05562
1.05575
1.05588
1.05602
1.05616
1.0563
1.05644
1.05658
1.05673
1.05688
1.05703
1.05804
1.05354
1.05365
1.05376
1.05387
1.05398
1.0541
1.05421
1.05433
1.05445
1.05457
1.05469
1.05482
1.05494
1.05507
1.0552
1.05533
1.05547
1.0556
1.05574
1.05588
1.05603
1.05704
1.05268
1.05278
1.05288
1.05299
1.05309
1.0532
1.05331
1.05342
1.05353
1.05365
1.05376
1.05388
1.054
1.05412
1.05424
1.05437
1.0545
1.05462
1.05476
1.05489
1.05502
1.05603
1.05182
1.05191
1.05201
1.05211
1.05221
1.05231
1.05241
1.05252
1.05262
1.05273
1.05284
1.05295
1.05306
1.05317
1.05329
1.05341
1.05353
1.05365
1.05377
1.0539
1.05402
1.05503
1.05095
1.05104
1.05114
1.05123
1.05132
1.05142
1.05151
1.05161
1.05171
1.05181
1.05191
1.05202
1.05212
1.05223
1.05234
1.05245
1.05256
1.05267
1.05279
1.0529
1.05302
1.05403
1.0501
1.05018
1.05026
1.05035
1.05044
1.05053
1.05062
1.05071
1.0508
1.05089
1.05099
1.05109
1.05118
1.05128
1.05138
1.05149
1.05159
1.0517
1.0518
1.05191
1.05203
1.05303
1.04924
1.04932
1.04939
1.04947
1.04956
1.04964
1.04972
1.04981
1.04989
1.04998
1.05007
1.05016
1.05025
1.05034
1.05043
1.05053
1.05063
1.05072
1.05082
1.05093
1.05103
1.05204
1.04838
1.04845
1.04852
1.0486
1.04867
1.04875
1.04883
1.0489
1.04898
1.04906
1.04915
1.04923
1.04931
1.0494
1.04948
1.04957
1.04966
1.04975
1.04984
1.04994
1.05003
1.05104
1.04752
1.04759
1.04766
1.04772
1.04779
1.04786
1.04793
1.048
1.04808
1.04815
1.04823
1.0483
1.04838
1.04846
1.04854
1.04862
1.0487
1.04878
1.04887
1.04895
1.04904
1.05004
1.04667
1.04673
1.04679
1.04685
1.04691
1.04697
1.04704
1.0471
1.04717
1.04724
1.04731
1.04737
1.04744
1.04752
1.04759
1.04766
1.04774
1.04781
1.04789
1.04797
1.04805
1.04905
1.04581
1.04587
1.04592
1.04598
1.04603
1.04609
1.04615
1.0462
1.04626
1.04632
1.04639
1.04645
1.04651
1.04658
1.04664
1.04671
1.04677
1.04684
1.04691
1.04698
1.04705
1.04806
1.04496
1.045
1.04505
1.0451
1.04515
1.0452
1.04525
1.04531
1.04536
1.04541
1.04547
1.04552
1.04558
1.04564
1.04569
1.04575
1.04581
1.04587
1.04593
1.046
1.04606
1.04706
1.0441
1.04414
1.04419
1.04423
1.04427
1.04432
1.04436
1.04441
1.04445
1.0445
1.04455
1.0446
1.04465
1.0447
1.04475
1.0448
1.04485
1.0449
1.04496
1.04501
1.04507
1.04607
1.04325
1.04328
1.04332
1.04336
1.0434
1.04343
1.04347
1.04351
1.04355
1.04359
1.04363
1.04367
1.04372
1.04376
1.0438
1.04385
1.04389
1.04394
1.04398
1.04403
1.04408
1.04508
1.04239
1.04243
1.04246
1.04249
1.04252
1.04255
1.04258
1.04262
1.04265
1.04268
1.04272
1.04275
1.04279
1.04282
1.04286
1.0429
1.04293
1.04297
1.04301
1.04305
1.04309
1.04409
1.04154
1.04157
1.04159
1.04162
1.04164
1.04167
1.04169
1.04172
1.04175
1.04177
1.0418
1.04183
1.04186
1.04189
1.04192
1.04194
1.04198
1.04201
1.04204
1.04207
1.0421
1.0431
1.04069
1.04071
1.04073
1.04075
1.04077
1.04078
1.0408
1.04082
1.04084
1.04086
1.04089
1.04091
1.04093
1.04095
1.04097
1.04099
1.04102
1.04104
1.04106
1.04109
1.04111
1.04211
1.03984
1.03985
1.03986
1.03988
1.03989
1.0399
1.03992
1.03993
1.03994
1.03996
1.03997
1.03999
1.04
1.04002
1.04003
1.04005
1.04006
1.04008
1.04009
1.04011
1.04013
1.04112
1.03899
1.03899
1.039
1.03901
1.03902
1.03902
1.03903
1.03904
1.03904
1.03905
1.03906
1.03907
1.03907
1.03908
1.03909
1.0391
1.03911
1.03911
1.03912
1.03913
1.03914
1.04014
1.03811
1.03811
1.03811
1.03811
1.03811
1.03811
1.03811
1.03811
1.03811
1.03811
1.03811
1.03811
1.03811
1.03811
1.03811
1.03811
1.03811
1.03811
1.03811
1.03812
1.03812
1.03911
)
;

boundaryField
{
    inlet
    {
        type            calculated;
        value           uniform 0;
    }
    outlet2
    {
        type            calculated;
        value           uniform 0;
    }
    outlet1
    {
        type            calculated;
        value           uniform 0;
    }
    wall
    {
        type            calculated;
        value           uniform 0;
    }
    symmetryBottom
    {
        type            symmetry;
    }
    symmetryZ0
    {
        type            symmetry;
    }
    symmetryZ05
    {
        type            symmetry;
    }
}


// ************************************************************************* //
