/*--------------------------------*- C++ -*----------------------------------*\
| =========                 |                                                 |
| \\      /  F ield         | OpenFOAM: The Open Source CFD Toolbox           |
|  \\    /   O peration     | Version:  2412                                  |
|   \\  /    A nd           | Website:  www.openfoam.com                      |
|    \\/     M anipulation  |                                                 |
\*---------------------------------------------------------------------------*/
FoamFile
{
    version     2.0;
    format      ascii;
    arch        "LSB;label=32;scalar=64";
    class       volScalarField;
    location    "9.13819e-07";
    object      rho_dof1;
}
// * * * * * * * * * * * * * * * * * * * * * * * * * * * * * * * * * * * * * //

dimensions      [0 0 0 0 0 0 0];

internalField   nonuniform List<scalar> 
625
(
1.10698e-05
-4.43617e-13
-5.49239e-09
1.10699e-05
-4.4361e-13
-1.042e-09
1.10699e-05
-4.43617e-13
-2.53412e-09
1.10699e-05
-4.43617e-13
-2.52914e-09
1.10699e-05
-4.43617e-13
-2.52915e-09
1.10699e-05
-4.43617e-13
-2.52915e-09
1.10699e-05
-4.43617e-13
-2.52915e-09
1.10699e-05
-4.43617e-13
-2.52915e-09
1.10699e-05
-4.43617e-13
-2.52915e-09
1.10699e-05
-4.43617e-13
-2.52915e-09
1.10699e-05
-4.43617e-13
-2.52915e-09
1.10699e-05
-4.43617e-13
-2.52915e-09
1.10699e-05
-4.43617e-13
-2.52915e-09
1.10699e-05
-4.43617e-13
-2.52915e-09
1.10699e-05
-4.43617e-13
-2.52915e-09
1.10699e-05
-4.43617e-13
-2.52915e-09
1.10699e-05
-4.43617e-13
-2.52915e-09
1.10699e-05
-4.43617e-13
-2.52915e-09
1.10699e-05
-4.43617e-13
-2.52915e-09
1.10699e-05
-4.43617e-13
-2.52915e-09
1.10699e-05
-4.43617e-13
-2.52915e-09
1.10699e-05
-4.43617e-13
-2.52915e-09
1.10699e-05
-4.43617e-13
-2.52906e-09
1.10699e-05
-4.43617e-13
-2.57422e-09
1.10725e-05
-4.43803e-13
-2.1127e-10
-2.74085e-08
-2.75975e-08
-2.77892e-08
-2.79836e-08
-2.81807e-08
-2.83806e-08
-2.85833e-08
-2.8789e-08
-2.89976e-08
-2.92093e-08
-2.94241e-08
-2.96421e-08
-2.98633e-08
-3.00879e-08
-3.03159e-08
-3.05474e-08
-3.07824e-08
-3.10211e-08
-3.12635e-08
-3.15097e-08
-3.17598e-08
-1.6347e-06
-2.79273e-08
-2.81235e-08
-2.83225e-08
-2.85243e-08
-2.87291e-08
-2.89368e-08
-2.91475e-08
-2.93613e-08
-2.95783e-08
-2.97985e-08
-3.0022e-08
-3.02489e-08
-3.04792e-08
-3.07131e-08
-3.09506e-08
-3.11917e-08
-3.14367e-08
-3.16856e-08
-3.19384e-08
-3.21953e-08
-3.24564e-08
5.42751e-08
-2.79068e-08
-2.81028e-08
-2.83015e-08
-2.8503e-08
-2.87075e-08
-2.89148e-08
-2.91253e-08
-2.93387e-08
-2.95554e-08
-2.97752e-08
-2.99984e-08
-3.02249e-08
-3.04549e-08
-3.06884e-08
-3.09255e-08
-3.11663e-08
-3.14109e-08
-3.16593e-08
-3.19117e-08
-3.21682e-08
-3.24288e-08
2.9698e-08
-2.78866e-08
-2.80823e-08
-2.82807e-08
-2.84819e-08
-2.86861e-08
-2.88931e-08
-2.91032e-08
-2.93164e-08
-2.95327e-08
-2.97522e-08
-2.99751e-08
-3.02012e-08
-3.04308e-08
-3.0664e-08
-3.09007e-08
-3.11411e-08
-3.13853e-08
-3.16334e-08
-3.18854e-08
-3.21414e-08
-3.24016e-08
2.99174e-08
-2.78664e-08
-2.80618e-08
-2.82599e-08
-2.84609e-08
-2.86647e-08
-2.88715e-08
-2.90812e-08
-2.92941e-08
-2.95101e-08
-2.97293e-08
-2.99517e-08
-3.01776e-08
-3.04068e-08
-3.06396e-08
-3.08759e-08
-3.1116e-08
-3.13598e-08
-3.16074e-08
-3.1859e-08
-3.21146e-08
-3.23744e-08
3.01435e-08
-2.78462e-08
-2.80413e-08
-2.82392e-08
-2.84398e-08
-2.86433e-08
-2.88498e-08
-2.90593e-08
-2.92718e-08
-2.94875e-08
-2.97063e-08
-2.99284e-08
-3.01539e-08
-3.03828e-08
-3.06152e-08
-3.08512e-08
-3.10908e-08
-3.13342e-08
-3.15815e-08
-3.18326e-08
-3.20879e-08
-3.23472e-08
3.03742e-08
-2.7826e-08
-2.80208e-08
-2.82184e-08
-2.84188e-08
-2.8622e-08
-2.88281e-08
-2.90373e-08
-2.92495e-08
-2.94648e-08
-2.96833e-08
-2.99051e-08
-3.01303e-08
-3.03588e-08
-3.05908e-08
-3.08265e-08
-3.10657e-08
-3.13087e-08
-3.15556e-08
-3.18063e-08
-3.20611e-08
-3.232e-08
3.06108e-08
-2.78058e-08
-2.80004e-08
-2.81976e-08
-2.83977e-08
-2.86006e-08
-2.88065e-08
-2.90153e-08
-2.92272e-08
-2.94422e-08
-2.96604e-08
-2.98819e-08
-3.01066e-08
-3.03348e-08
-3.05665e-08
-3.08017e-08
-3.10406e-08
-3.12832e-08
-3.15297e-08
-3.178e-08
-3.20344e-08
-3.22928e-08
3.08533e-08
-2.77857e-08
-2.79799e-08
-2.81769e-08
-2.83767e-08
-2.85793e-08
-2.87849e-08
-2.89934e-08
-2.92049e-08
-2.94196e-08
-2.96375e-08
-2.98586e-08
-3.0083e-08
-3.03109e-08
-3.05422e-08
-3.0777e-08
-3.10155e-08
-3.12577e-08
-3.15038e-08
-3.17537e-08
-3.20077e-08
-3.22657e-08
3.11016e-08
-2.77655e-08
-2.79595e-08
-2.81562e-08
-2.83557e-08
-2.8558e-08
-2.87632e-08
-2.89714e-08
-2.91827e-08
-2.9397e-08
-2.96146e-08
-2.98353e-08
-3.00594e-08
-3.02869e-08
-3.05178e-08
-3.07523e-08
-3.09904e-08
-3.12323e-08
-3.14779e-08
-3.17275e-08
-3.1981e-08
-3.22386e-08
3.1351e-08
-2.7745e-08
-2.79387e-08
-2.81351e-08
-2.83343e-08
-2.85363e-08
-2.87412e-08
-2.89491e-08
-2.916e-08
-2.93741e-08
-2.95912e-08
-2.98117e-08
-3.00354e-08
-3.02625e-08
-3.04931e-08
-3.07272e-08
-3.09649e-08
-3.12064e-08
-3.14516e-08
-3.17007e-08
-3.19538e-08
-3.2211e-08
3.1434e-08
-2.77245e-08
-2.79179e-08
-2.8114e-08
-2.83129e-08
-2.85146e-08
-2.87192e-08
-2.89268e-08
-2.91374e-08
-2.93511e-08
-2.95679e-08
-2.9788e-08
-3.00114e-08
-3.02381e-08
-3.04683e-08
-3.07021e-08
-3.09394e-08
-3.11805e-08
-3.14253e-08
-3.1674e-08
-3.19267e-08
-3.21834e-08
3.15058e-08
-2.7704e-08
-2.78971e-08
-2.80929e-08
-2.82915e-08
-2.84929e-08
-2.86973e-08
-2.89045e-08
-2.91148e-08
-2.93281e-08
-2.95447e-08
-2.97644e-08
-2.99874e-08
-3.02138e-08
-3.04436e-08
-3.0677e-08
-3.09139e-08
-3.11546e-08
-3.1399e-08
-3.16473e-08
-3.18995e-08
-3.21559e-08
3.15801e-08
-2.76835e-08
-2.78763e-08
-2.80719e-08
-2.82702e-08
-2.84713e-08
-2.86753e-08
-2.88822e-08
-2.90922e-08
-2.93052e-08
-2.95214e-08
-2.97408e-08
-2.99634e-08
-3.01894e-08
-3.04189e-08
-3.06519e-08
-3.08885e-08
-3.11287e-08
-3.13727e-08
-3.16206e-08
-3.18724e-08
-3.21283e-08
3.1657e-08
-2.76631e-08
-2.78556e-08
-2.80508e-08
-2.82488e-08
-2.84497e-08
-2.86533e-08
-2.886e-08
-2.90696e-08
-2.92823e-08
-2.94981e-08
-2.97172e-08
-2.99395e-08
-3.01651e-08
-3.03942e-08
-3.06268e-08
-3.0863e-08
-3.11029e-08
-3.13465e-08
-3.15939e-08
-3.18453e-08
-3.21008e-08
3.17365e-08
-2.76426e-08
-2.78349e-08
-2.80298e-08
-2.82275e-08
-2.8428e-08
-2.86314e-08
-2.88377e-08
-2.9047e-08
-2.92594e-08
-2.94749e-08
-2.96936e-08
-2.99155e-08
-3.01408e-08
-3.03695e-08
-3.06018e-08
-3.08376e-08
-3.10771e-08
-3.13202e-08
-3.15673e-08
-3.18183e-08
-3.20733e-08
3.18185e-08
-2.76222e-08
-2.78141e-08
-2.80088e-08
-2.82062e-08
-2.84064e-08
-2.86095e-08
-2.88155e-08
-2.90244e-08
-2.92365e-08
-2.94516e-08
-2.967e-08
-2.98916e-08
-3.01165e-08
-3.03449e-08
-3.05767e-08
-3.08122e-08
-3.10512e-08
-3.1294e-08
-3.15407e-08
-3.17912e-08
-3.20458e-08
3.19032e-08
-2.76017e-08
-2.77934e-08
-2.79878e-08
-2.81849e-08
-2.83848e-08
-2.85876e-08
-2.87932e-08
-2.90019e-08
-2.92136e-08
-2.94284e-08
-2.96464e-08
-2.98677e-08
-3.00923e-08
-3.03203e-08
-3.05517e-08
-3.07868e-08
-3.10254e-08
-3.12678e-08
-3.15141e-08
-3.17642e-08
-3.20183e-08
3.19905e-08
-2.75813e-08
-2.77727e-08
-2.79668e-08
-2.81636e-08
-2.83632e-08
-2.85657e-08
-2.8771e-08
-2.89794e-08
-2.91908e-08
-2.94052e-08
-2.96229e-08
-2.98438e-08
-3.0068e-08
-3.02956e-08
-3.05267e-08
-3.07614e-08
-3.09997e-08
-3.12416e-08
-3.14875e-08
-3.17372e-08
-3.19909e-08
3.20803e-08
-2.75609e-08
-2.7752e-08
-2.79458e-08
-2.81423e-08
-2.83417e-08
-2.85438e-08
-2.87489e-08
-2.89568e-08
-2.91679e-08
-2.93821e-08
-2.95994e-08
-2.98199e-08
-3.00438e-08
-3.0271e-08
-3.05017e-08
-3.0736e-08
-3.09739e-08
-3.12155e-08
-3.14609e-08
-3.17102e-08
-3.19635e-08
3.21727e-08
-2.75405e-08
-2.77314e-08
-2.79249e-08
-2.81211e-08
-2.83201e-08
-2.85219e-08
-2.87266e-08
-2.89344e-08
-2.91451e-08
-2.93589e-08
-2.95759e-08
-2.97961e-08
-3.00196e-08
-3.02465e-08
-3.04768e-08
-3.07107e-08
-3.09482e-08
-3.11893e-08
-3.14343e-08
-3.16832e-08
-3.1936e-08
3.22677e-08
-2.75201e-08
-2.77107e-08
-2.79039e-08
-2.80998e-08
-2.82985e-08
-2.85001e-08
-2.87045e-08
-2.89119e-08
-2.91222e-08
-2.93357e-08
-2.95524e-08
-2.97722e-08
-2.99954e-08
-3.02219e-08
-3.04518e-08
-3.06853e-08
-3.09224e-08
-3.11632e-08
-3.14078e-08
-3.16562e-08
-3.19087e-08
3.23653e-08
-2.74998e-08
-2.769e-08
-2.7883e-08
-2.80786e-08
-2.8277e-08
-2.84782e-08
-2.86823e-08
-2.88894e-08
-2.90995e-08
-2.93126e-08
-2.95289e-08
-2.97484e-08
-2.99712e-08
-3.01973e-08
-3.04269e-08
-3.066e-08
-3.08967e-08
-3.11371e-08
-3.13813e-08
-3.16293e-08
-3.18813e-08
3.24655e-08
-2.74794e-08
-2.76694e-08
-2.78621e-08
-2.80574e-08
-2.82555e-08
-2.84564e-08
-2.86602e-08
-2.88669e-08
-2.90767e-08
-2.92895e-08
-2.95054e-08
-2.97246e-08
-2.9947e-08
-3.01728e-08
-3.0402e-08
-3.06347e-08
-3.08711e-08
-3.1111e-08
-3.13548e-08
-3.16024e-08
-3.1854e-08
3.25582e-08
-2.74648e-08
-2.76546e-08
-2.7847e-08
-2.80421e-08
-2.824e-08
-2.84407e-08
-2.86443e-08
-2.88508e-08
-2.90603e-08
-2.92728e-08
-2.94886e-08
-2.97075e-08
-2.99296e-08
-3.01552e-08
-3.03841e-08
-3.06166e-08
-3.08526e-08
-3.10923e-08
-3.13358e-08
-3.15831e-08
-3.18343e-08
3.52949e-08
)
;

boundaryField
{
    inlet
    {
        type            calculated;
        value           uniform 0;
    }
    outlet2
    {
        type            calculated;
        value           uniform 0;
    }
    outlet1
    {
        type            calculated;
        value           uniform 0;
    }
    wall
    {
        type            calculated;
        value           uniform 0;
    }
    symmetryBottom
    {
        type            symmetry;
    }
    symmetryZ0
    {
        type            symmetry;
    }
    symmetryZ05
    {
        type            symmetry;
    }
}


// ************************************************************************* //
