/*--------------------------------*- C++ -*----------------------------------*\
| =========                 |                                                 |
| \\      /  F ield         | OpenFOAM: The Open Source CFD Toolbox           |
|  \\    /   O peration     | Version:  2412                                  |
|   \\  /    A nd           | Website:  www.openfoam.com                      |
|    \\/     M anipulation  |                                                 |
\*---------------------------------------------------------------------------*/
FoamFile
{
    version     2.0;
    format      ascii;
    arch        "LSB;label=32;scalar=64";
    class       volScalarField;
    location    "9.13819e-07";
    object      rho_dof0;
}
// * * * * * * * * * * * * * * * * * * * * * * * * * * * * * * * * * * * * * //

dimensions      [0 0 0 0 0 0 0];

internalField   nonuniform List<scalar> 
625
(
2.84817e-05
2.43054e-05
2.43054e-05
2.84823e-05
2.43059e-05
2.43059e-05
2.84817e-05
2.43054e-05
2.43054e-05
2.84817e-05
2.43054e-05
2.43054e-05
2.84817e-05
2.43054e-05
2.43054e-05
2.84817e-05
2.43054e-05
2.43054e-05
2.84817e-05
2.43054e-05
2.43054e-05
2.84817e-05
2.43054e-05
2.43054e-05
2.84817e-05
2.43054e-05
2.43054e-05
2.84817e-05
2.43054e-05
2.43054e-05
2.84817e-05
2.43054e-05
2.43054e-05
2.84817e-05
2.43054e-05
2.43054e-05
2.84817e-05
2.43054e-05
2.43054e-05
2.84817e-05
2.43054e-05
2.43054e-05
2.84817e-05
2.43054e-05
2.43054e-05
2.84817e-05
2.43054e-05
2.43054e-05
2.84817e-05
2.43054e-05
2.43054e-05
2.84817e-05
2.43054e-05
2.43054e-05
2.84817e-05
2.43054e-05
2.43054e-05
2.84817e-05
2.43054e-05
2.43054e-05
2.84817e-05
2.43054e-05
2.43054e-05
2.84817e-05
2.43054e-05
2.43054e-05
2.84817e-05
2.43054e-05
2.43054e-05
2.84817e-05
2.43054e-05
2.43054e-05
2.84819e-05
2.43045e-05
2.43045e-05
2.49854e-05
2.49857e-05
2.4986e-05
2.49863e-05
2.49866e-05
2.4987e-05
2.49873e-05
2.49877e-05
2.49881e-05
2.49884e-05
2.49888e-05
2.49892e-05
2.49896e-05
2.499e-05
2.49905e-05
2.49909e-05
2.49913e-05
2.49918e-05
2.49923e-05
2.49928e-05
2.49933e-05
2.50169e-05
2.54527e-05
2.54561e-05
2.54596e-05
2.54631e-05
2.54666e-05
2.54702e-05
2.54739e-05
2.54776e-05
2.54814e-05
2.54852e-05
2.54891e-05
2.5493e-05
2.5497e-05
2.55011e-05
2.55052e-05
2.55094e-05
2.55137e-05
2.5518e-05
2.55224e-05
2.55269e-05
2.55314e-05
2.55556e-05
2.54257e-05
2.54289e-05
2.54321e-05
2.54354e-05
2.54387e-05
2.54421e-05
2.54455e-05
2.54489e-05
2.54525e-05
2.5456e-05
2.54596e-05
2.54633e-05
2.5467e-05
2.54708e-05
2.54747e-05
2.54786e-05
2.54825e-05
2.54865e-05
2.54906e-05
2.54948e-05
2.5499e-05
2.55231e-05
2.54049e-05
2.5408e-05
2.5411e-05
2.54142e-05
2.54173e-05
2.54205e-05
2.54238e-05
2.54271e-05
2.54304e-05
2.54338e-05
2.54373e-05
2.54408e-05
2.54443e-05
2.54479e-05
2.54516e-05
2.54553e-05
2.54591e-05
2.54629e-05
2.54668e-05
2.54708e-05
2.54748e-05
2.54989e-05
2.53841e-05
2.5387e-05
2.539e-05
2.53929e-05
2.53959e-05
2.5399e-05
2.54021e-05
2.54052e-05
2.54084e-05
2.54117e-05
2.54149e-05
2.54183e-05
2.54217e-05
2.54251e-05
2.54286e-05
2.54321e-05
2.54357e-05
2.54394e-05
2.54431e-05
2.54469e-05
2.54507e-05
2.54748e-05
2.53634e-05
2.53661e-05
2.53689e-05
2.53717e-05
2.53746e-05
2.53775e-05
2.53804e-05
2.53834e-05
2.53864e-05
2.53895e-05
2.53926e-05
2.53958e-05
2.5399e-05
2.54023e-05
2.54056e-05
2.54089e-05
2.54123e-05
2.54158e-05
2.54193e-05
2.54229e-05
2.54266e-05
2.54506e-05
2.53426e-05
2.53452e-05
2.53478e-05
2.53505e-05
2.53532e-05
2.5356e-05
2.53588e-05
2.53616e-05
2.53644e-05
2.53674e-05
2.53703e-05
2.53733e-05
2.53763e-05
2.53794e-05
2.53826e-05
2.53858e-05
2.5389e-05
2.53923e-05
2.53956e-05
2.5399e-05
2.54024e-05
2.54265e-05
2.53219e-05
2.53243e-05
2.53268e-05
2.53293e-05
2.53319e-05
2.53345e-05
2.53371e-05
2.53398e-05
2.53425e-05
2.53452e-05
2.5348e-05
2.53508e-05
2.53537e-05
2.53566e-05
2.53596e-05
2.53626e-05
2.53657e-05
2.53688e-05
2.53719e-05
2.53751e-05
2.53784e-05
2.54024e-05
2.53011e-05
2.53035e-05
2.53058e-05
2.53082e-05
2.53106e-05
2.5313e-05
2.53155e-05
2.5318e-05
2.53205e-05
2.53231e-05
2.53257e-05
2.53284e-05
2.53311e-05
2.53339e-05
2.53366e-05
2.53395e-05
2.53423e-05
2.53453e-05
2.53482e-05
2.53512e-05
2.53543e-05
2.53783e-05
2.52804e-05
2.52826e-05
2.52848e-05
2.5287e-05
2.52893e-05
2.52915e-05
2.52939e-05
2.52962e-05
2.52986e-05
2.5301e-05
2.53035e-05
2.5306e-05
2.53085e-05
2.53111e-05
2.53137e-05
2.53163e-05
2.5319e-05
2.53218e-05
2.53245e-05
2.53274e-05
2.53302e-05
2.53542e-05
2.52598e-05
2.52618e-05
2.52638e-05
2.52659e-05
2.5268e-05
2.52702e-05
2.52723e-05
2.52745e-05
2.52767e-05
2.5279e-05
2.52813e-05
2.52836e-05
2.5286e-05
2.52884e-05
2.52908e-05
2.52933e-05
2.52958e-05
2.52984e-05
2.5301e-05
2.53036e-05
2.53063e-05
2.53302e-05
2.52391e-05
2.5241e-05
2.52429e-05
2.52448e-05
2.52468e-05
2.52488e-05
2.52508e-05
2.52528e-05
2.52549e-05
2.5257e-05
2.52591e-05
2.52613e-05
2.52635e-05
2.52657e-05
2.5268e-05
2.52703e-05
2.52726e-05
2.5275e-05
2.52774e-05
2.52798e-05
2.52823e-05
2.53063e-05
2.52185e-05
2.52203e-05
2.5222e-05
2.52238e-05
2.52256e-05
2.52274e-05
2.52293e-05
2.52312e-05
2.52331e-05
2.5235e-05
2.5237e-05
2.5239e-05
2.5241e-05
2.5243e-05
2.52451e-05
2.52473e-05
2.52494e-05
2.52516e-05
2.52538e-05
2.52561e-05
2.52584e-05
2.52823e-05
2.51979e-05
2.51995e-05
2.52011e-05
2.52027e-05
2.52044e-05
2.52061e-05
2.52078e-05
2.52095e-05
2.52112e-05
2.5213e-05
2.52148e-05
2.52167e-05
2.52185e-05
2.52204e-05
2.52223e-05
2.52243e-05
2.52262e-05
2.52282e-05
2.52303e-05
2.52323e-05
2.52344e-05
2.52584e-05
2.51773e-05
2.51788e-05
2.51802e-05
2.51817e-05
2.51832e-05
2.51847e-05
2.51863e-05
2.51879e-05
2.51894e-05
2.51911e-05
2.51927e-05
2.51944e-05
2.51961e-05
2.51978e-05
2.51995e-05
2.52013e-05
2.52031e-05
2.52049e-05
2.52068e-05
2.52086e-05
2.52105e-05
2.52344e-05
2.51567e-05
2.5158e-05
2.51594e-05
2.51607e-05
2.5162e-05
2.51634e-05
2.51648e-05
2.51662e-05
2.51677e-05
2.51691e-05
2.51706e-05
2.51721e-05
2.51736e-05
2.51752e-05
2.51767e-05
2.51783e-05
2.51799e-05
2.51816e-05
2.51833e-05
2.51849e-05
2.51867e-05
2.52105e-05
2.51362e-05
2.51373e-05
2.51385e-05
2.51397e-05
2.51409e-05
2.51421e-05
2.51434e-05
2.51446e-05
2.51459e-05
2.51472e-05
2.51485e-05
2.51498e-05
2.51512e-05
2.51526e-05
2.5154e-05
2.51554e-05
2.51568e-05
2.51583e-05
2.51598e-05
2.51613e-05
2.51628e-05
2.51867e-05
2.51156e-05
2.51166e-05
2.51177e-05
2.51187e-05
2.51198e-05
2.51208e-05
2.51219e-05
2.5123e-05
2.51241e-05
2.51253e-05
2.51264e-05
2.51276e-05
2.51288e-05
2.513e-05
2.51312e-05
2.51325e-05
2.51337e-05
2.5135e-05
2.51363e-05
2.51376e-05
2.5139e-05
2.51628e-05
2.50951e-05
2.5096e-05
2.50968e-05
2.50977e-05
2.50987e-05
2.50996e-05
2.51005e-05
2.51015e-05
2.51024e-05
2.51034e-05
2.51044e-05
2.51054e-05
2.51064e-05
2.51074e-05
2.51085e-05
2.51096e-05
2.51106e-05
2.51117e-05
2.51129e-05
2.5114e-05
2.51152e-05
2.5139e-05
2.50746e-05
2.50753e-05
2.5076e-05
2.50768e-05
2.50776e-05
2.50783e-05
2.50791e-05
2.50799e-05
2.50807e-05
2.50815e-05
2.50823e-05
2.50832e-05
2.5084e-05
2.50849e-05
2.50858e-05
2.50867e-05
2.50876e-05
2.50885e-05
2.50894e-05
2.50904e-05
2.50914e-05
2.51151e-05
2.50541e-05
2.50547e-05
2.50553e-05
2.50559e-05
2.50565e-05
2.50571e-05
2.50577e-05
2.50584e-05
2.5059e-05
2.50597e-05
2.50603e-05
2.5061e-05
2.50617e-05
2.50624e-05
2.50631e-05
2.50638e-05
2.50645e-05
2.50653e-05
2.5066e-05
2.50668e-05
2.50676e-05
2.50913e-05
2.50336e-05
2.5034e-05
2.50345e-05
2.50349e-05
2.50354e-05
2.50359e-05
2.50363e-05
2.50368e-05
2.50373e-05
2.50378e-05
2.50383e-05
2.50388e-05
2.50393e-05
2.50399e-05
2.50404e-05
2.5041e-05
2.50415e-05
2.50421e-05
2.50426e-05
2.50432e-05
2.50438e-05
2.50676e-05
2.50131e-05
2.50134e-05
2.50137e-05
2.5014e-05
2.50143e-05
2.50147e-05
2.5015e-05
2.50153e-05
2.50156e-05
2.5016e-05
2.50163e-05
2.50167e-05
2.5017e-05
2.50174e-05
2.50178e-05
2.50181e-05
2.50185e-05
2.50189e-05
2.50193e-05
2.50197e-05
2.50201e-05
2.50438e-05
2.49926e-05
2.49928e-05
2.4993e-05
2.49931e-05
2.49933e-05
2.49935e-05
2.49936e-05
2.49938e-05
2.4994e-05
2.49942e-05
2.49944e-05
2.49945e-05
2.49947e-05
2.49949e-05
2.49951e-05
2.49953e-05
2.49955e-05
2.49957e-05
2.49959e-05
2.49961e-05
2.49964e-05
2.50201e-05
2.49714e-05
2.49714e-05
2.49714e-05
2.49715e-05
2.49715e-05
2.49715e-05
2.49715e-05
2.49715e-05
2.49715e-05
2.49715e-05
2.49716e-05
2.49716e-05
2.49716e-05
2.49716e-05
2.49716e-05
2.49716e-05
2.49717e-05
2.49717e-05
2.49717e-05
2.49717e-05
2.49717e-05
2.49955e-05
)
;

boundaryField
{
    inlet
    {
        type            calculated;
        value           uniform 2.81085e-05;
    }
    outlet2
    {
        type            calculated;
        value           uniform 2.81085e-05;
    }
    outlet1
    {
        type            calculated;
        value           uniform 2.81085e-05;
    }
    wall
    {
        type            calculated;
        value           uniform 2.81085e-05;
    }
    symmetryBottom
    {
        type            symmetry;
    }
    symmetryZ0
    {
        type            symmetry;
    }
    symmetryZ05
    {
        type            symmetry;
    }
}


// ************************************************************************* //
