/*--------------------------------*- C++ -*----------------------------------*\
| =========                 |                                                 |
| \\      /  F ield         | OpenFOAM: The Open Source CFD Toolbox           |
|  \\    /   O peration     | Version:  2412                                  |
|   \\  /    A nd           | Website:  www.openfoam.com                      |
|    \\/     M anipulation  |                                                 |
\*---------------------------------------------------------------------------*/
FoamFile
{
    version     2.0;
    format      ascii;
    arch        "LSB;label=32;scalar=64";
    class       volScalarField;
    location    "9.13819e-07";
    object      rho_dof3;
}
// * * * * * * * * * * * * * * * * * * * * * * * * * * * * * * * * * * * * * //

dimensions      [0 0 0 0 0 0 0];

internalField   nonuniform List<scalar> 
625
(
1.9728e-07
1.77813e-07
1.55837e-07
1.97283e-07
1.77816e-07
1.55839e-07
1.97283e-07
1.77816e-07
1.55839e-07
1.97283e-07
1.77816e-07
1.55839e-07
1.97283e-07
1.77816e-07
1.55839e-07
1.97283e-07
1.77816e-07
1.55839e-07
1.97283e-07
1.77816e-07
1.55839e-07
1.97283e-07
1.77816e-07
1.55839e-07
1.97283e-07
1.77816e-07
1.55839e-07
1.97283e-07
1.77816e-07
1.55839e-07
1.97283e-07
1.77816e-07
1.55839e-07
1.97283e-07
1.77816e-07
1.55839e-07
1.97283e-07
1.77816e-07
1.55839e-07
1.97283e-07
1.77816e-07
1.55839e-07
1.97283e-07
1.77816e-07
1.55839e-07
1.97283e-07
1.77816e-07
1.55839e-07
1.97283e-07
1.77816e-07
1.55839e-07
1.97283e-07
1.77816e-07
1.55839e-07
1.97283e-07
1.77816e-07
1.55839e-07
1.97283e-07
1.77816e-07
1.55839e-07
1.97283e-07
1.77816e-07
1.55839e-07
1.97283e-07
1.77816e-07
1.55839e-07
1.97283e-07
1.77816e-07
1.55839e-07
1.97283e-07
1.77816e-07
1.55662e-07
1.97331e-07
1.77856e-07
1.77593e-07
1.82536e-07
1.82538e-07
1.8254e-07
1.82542e-07
1.82544e-07
1.82546e-07
1.82548e-07
1.8255e-07
1.82552e-07
1.82554e-07
1.82556e-07
1.82558e-07
1.82561e-07
1.82563e-07
1.82565e-07
1.82567e-07
1.8257e-07
1.82572e-07
1.82575e-07
1.82577e-07
1.8258e-07
1.94715e-07
1.85975e-07
1.86001e-07
1.86027e-07
1.86053e-07
1.8608e-07
1.86107e-07
1.86134e-07
1.86162e-07
1.8619e-07
1.86219e-07
1.86248e-07
1.86278e-07
1.86308e-07
1.86338e-07
1.86369e-07
1.86401e-07
1.86433e-07
1.86465e-07
1.86498e-07
1.86531e-07
1.86565e-07
1.98985e-07
1.85842e-07
1.85867e-07
1.85892e-07
1.85917e-07
1.85943e-07
1.85969e-07
1.85995e-07
1.86022e-07
1.86049e-07
1.86077e-07
1.86105e-07
1.86133e-07
1.86162e-07
1.86192e-07
1.86222e-07
1.86252e-07
1.86283e-07
1.86314e-07
1.86345e-07
1.86378e-07
1.8641e-07
1.98816e-07
1.85709e-07
1.85733e-07
1.85757e-07
1.85781e-07
1.85806e-07
1.85831e-07
1.85857e-07
1.85882e-07
1.85909e-07
1.85935e-07
1.85962e-07
1.8599e-07
1.86018e-07
1.86046e-07
1.86074e-07
1.86104e-07
1.86133e-07
1.86163e-07
1.86194e-07
1.86225e-07
1.86256e-07
1.98649e-07
1.85577e-07
1.85599e-07
1.85622e-07
1.85646e-07
1.8567e-07
1.85694e-07
1.85718e-07
1.85743e-07
1.85768e-07
1.85794e-07
1.8582e-07
1.85846e-07
1.85873e-07
1.859e-07
1.85927e-07
1.85955e-07
1.85984e-07
1.86013e-07
1.86042e-07
1.86072e-07
1.86102e-07
1.98483e-07
1.85444e-07
1.85466e-07
1.85488e-07
1.8551e-07
1.85533e-07
1.85556e-07
1.8558e-07
1.85604e-07
1.85628e-07
1.85652e-07
1.85677e-07
1.85702e-07
1.85728e-07
1.85754e-07
1.85781e-07
1.85807e-07
1.85835e-07
1.85862e-07
1.8589e-07
1.85919e-07
1.85948e-07
1.98316e-07
1.85311e-07
1.85332e-07
1.85354e-07
1.85375e-07
1.85397e-07
1.85419e-07
1.85442e-07
1.85464e-07
1.85488e-07
1.85511e-07
1.85535e-07
1.85559e-07
1.85584e-07
1.85608e-07
1.85634e-07
1.85659e-07
1.85686e-07
1.85712e-07
1.85739e-07
1.85766e-07
1.85794e-07
1.98149e-07
1.85179e-07
1.85199e-07
1.85219e-07
1.8524e-07
1.85261e-07
1.85282e-07
1.85303e-07
1.85325e-07
1.85347e-07
1.8537e-07
1.85392e-07
1.85416e-07
1.85439e-07
1.85463e-07
1.85487e-07
1.85512e-07
1.85536e-07
1.85562e-07
1.85588e-07
1.85614e-07
1.8564e-07
1.97983e-07
1.85047e-07
1.85066e-07
1.85085e-07
1.85105e-07
1.85125e-07
1.85145e-07
1.85165e-07
1.85186e-07
1.85207e-07
1.85229e-07
1.8525e-07
1.85272e-07
1.85295e-07
1.85317e-07
1.8534e-07
1.85364e-07
1.85388e-07
1.85412e-07
1.85436e-07
1.85461e-07
1.85486e-07
1.97817e-07
1.84914e-07
1.84932e-07
1.84951e-07
1.8497e-07
1.84988e-07
1.85008e-07
1.85027e-07
1.85047e-07
1.85067e-07
1.85087e-07
1.85108e-07
1.85129e-07
1.8515e-07
1.85172e-07
1.85194e-07
1.85216e-07
1.85239e-07
1.85262e-07
1.85285e-07
1.85309e-07
1.85333e-07
1.9765e-07
1.84779e-07
1.84797e-07
1.84814e-07
1.84832e-07
1.8485e-07
1.84868e-07
1.84886e-07
1.84905e-07
1.84924e-07
1.84943e-07
1.84963e-07
1.84983e-07
1.85003e-07
1.85023e-07
1.85044e-07
1.85065e-07
1.85087e-07
1.85109e-07
1.85131e-07
1.85153e-07
1.85176e-07
1.97481e-07
1.84644e-07
1.84661e-07
1.84677e-07
1.84694e-07
1.84711e-07
1.84728e-07
1.84746e-07
1.84763e-07
1.84781e-07
1.848e-07
1.84818e-07
1.84837e-07
1.84856e-07
1.84875e-07
1.84895e-07
1.84915e-07
1.84935e-07
1.84956e-07
1.84977e-07
1.84998e-07
1.85019e-07
1.97312e-07
1.8451e-07
1.84525e-07
1.84541e-07
1.84556e-07
1.84572e-07
1.84588e-07
1.84605e-07
1.84622e-07
1.84639e-07
1.84656e-07
1.84673e-07
1.84691e-07
1.84709e-07
1.84727e-07
1.84746e-07
1.84764e-07
1.84783e-07
1.84803e-07
1.84823e-07
1.84843e-07
1.84863e-07
1.97143e-07
1.84375e-07
1.84389e-07
1.84404e-07
1.84419e-07
1.84434e-07
1.84449e-07
1.84464e-07
1.8448e-07
1.84496e-07
1.84512e-07
1.84528e-07
1.84545e-07
1.84562e-07
1.84579e-07
1.84596e-07
1.84614e-07
1.84632e-07
1.8465e-07
1.84669e-07
1.84687e-07
1.84706e-07
1.96974e-07
1.8424e-07
1.84254e-07
1.84267e-07
1.84281e-07
1.84295e-07
1.84309e-07
1.84324e-07
1.84339e-07
1.84353e-07
1.84368e-07
1.84384e-07
1.84399e-07
1.84415e-07
1.84431e-07
1.84447e-07
1.84464e-07
1.84481e-07
1.84498e-07
1.84515e-07
1.84532e-07
1.8455e-07
1.96806e-07
1.84106e-07
1.84118e-07
1.84131e-07
1.84144e-07
1.84157e-07
1.8417e-07
1.84184e-07
1.84197e-07
1.84211e-07
1.84225e-07
1.84239e-07
1.84254e-07
1.84268e-07
1.84283e-07
1.84298e-07
1.84314e-07
1.84329e-07
1.84345e-07
1.84361e-07
1.84377e-07
1.84394e-07
1.96637e-07
1.83971e-07
1.83983e-07
1.83995e-07
1.84006e-07
1.84019e-07
1.84031e-07
1.84043e-07
1.84056e-07
1.84069e-07
1.84082e-07
1.84095e-07
1.84108e-07
1.84122e-07
1.84135e-07
1.84149e-07
1.84164e-07
1.84178e-07
1.84193e-07
1.84207e-07
1.84223e-07
1.84238e-07
1.96469e-07
1.83837e-07
1.83848e-07
1.83858e-07
1.83869e-07
1.8388e-07
1.83892e-07
1.83903e-07
1.83915e-07
1.83926e-07
1.83938e-07
1.8395e-07
1.83963e-07
1.83975e-07
1.83988e-07
1.84001e-07
1.84014e-07
1.84027e-07
1.8404e-07
1.84054e-07
1.84068e-07
1.84082e-07
1.963e-07
1.83703e-07
1.83712e-07
1.83722e-07
1.83732e-07
1.83742e-07
1.83752e-07
1.83763e-07
1.83773e-07
1.83784e-07
1.83795e-07
1.83806e-07
1.83817e-07
1.83829e-07
1.8384e-07
1.83852e-07
1.83864e-07
1.83876e-07
1.83888e-07
1.83901e-07
1.83913e-07
1.83926e-07
1.96132e-07
1.83568e-07
1.83577e-07
1.83586e-07
1.83595e-07
1.83604e-07
1.83613e-07
1.83623e-07
1.83632e-07
1.83642e-07
1.83652e-07
1.83662e-07
1.83672e-07
1.83682e-07
1.83693e-07
1.83703e-07
1.83714e-07
1.83725e-07
1.83736e-07
1.83747e-07
1.83759e-07
1.8377e-07
1.95964e-07
1.83434e-07
1.83442e-07
1.8345e-07
1.83458e-07
1.83466e-07
1.83474e-07
1.83483e-07
1.83491e-07
1.835e-07
1.83509e-07
1.83518e-07
1.83527e-07
1.83536e-07
1.83545e-07
1.83555e-07
1.83564e-07
1.83574e-07
1.83584e-07
1.83594e-07
1.83604e-07
1.83615e-07
1.95796e-07
1.833e-07
1.83307e-07
1.83314e-07
1.83321e-07
1.83328e-07
1.83336e-07
1.83343e-07
1.83351e-07
1.83358e-07
1.83366e-07
1.83374e-07
1.83382e-07
1.8339e-07
1.83398e-07
1.83406e-07
1.83415e-07
1.83423e-07
1.83432e-07
1.83441e-07
1.8345e-07
1.83459e-07
1.95628e-07
1.83166e-07
1.83172e-07
1.83178e-07
1.83184e-07
1.83191e-07
1.83197e-07
1.83203e-07
1.8321e-07
1.83216e-07
1.83223e-07
1.8323e-07
1.83237e-07
1.83244e-07
1.83251e-07
1.83258e-07
1.83265e-07
1.83273e-07
1.8328e-07
1.83288e-07
1.83296e-07
1.83304e-07
1.9546e-07
1.83032e-07
1.83037e-07
1.83042e-07
1.83048e-07
1.83053e-07
1.83058e-07
1.83064e-07
1.83069e-07
1.83075e-07
1.8308e-07
1.83086e-07
1.83092e-07
1.83098e-07
1.83104e-07
1.8311e-07
1.83116e-07
1.83122e-07
1.83129e-07
1.83135e-07
1.83142e-07
1.83149e-07
1.95293e-07
1.82941e-07
1.82945e-07
1.82949e-07
1.82954e-07
1.82959e-07
1.82963e-07
1.82968e-07
1.82973e-07
1.82978e-07
1.82983e-07
1.82988e-07
1.82993e-07
1.82998e-07
1.83003e-07
1.83008e-07
1.83014e-07
1.83019e-07
1.83025e-07
1.83031e-07
1.83036e-07
1.83042e-07
1.95172e-07
)
;

boundaryField
{
    inlet
    {
        type            calculated;
        value           uniform 0;
    }
    outlet2
    {
        type            calculated;
        value           uniform 0;
    }
    outlet1
    {
        type            calculated;
        value           uniform 0;
    }
    wall
    {
        type            calculated;
        value           uniform 0;
    }
    symmetryBottom
    {
        type            symmetry;
    }
    symmetryZ0
    {
        type            symmetry;
    }
    symmetryZ05
    {
        type            symmetry;
    }
}


// ************************************************************************* //
