/*--------------------------------*- C++ -*----------------------------------*\
| =========                 |                                                 |
| \\      /  F ield         | OpenFOAM: The Open Source CFD Toolbox           |
|  \\    /   O peration     | Version:  2412                                  |
|   \\  /    A nd           | Website:  www.openfoam.com                      |
|    \\/     M anipulation  |                                                 |
\*---------------------------------------------------------------------------*/
FoamFile
{
    version     2.0;
    format      ascii;
    arch        "LSB;label=32;scalar=64";
    class       volScalarField;
    location    "9.13819e-07";
    object      rho_dof2;
}
// * * * * * * * * * * * * * * * * * * * * * * * * * * * * * * * * * * * * * //

dimensions      [0 0 0 0 0 0 0];

internalField   nonuniform List<scalar> 
625
(
2.78353e-09
5.48495e-09
-2.72674e-11
-2.07023e-09
9.76328e-10
-1.15992e-10
-4.54351e-10
2.46828e-09
-1.15851e-10
-4.59672e-10
2.4633e-09
-1.15852e-10
-4.5966e-10
2.46331e-09
-1.15852e-10
-4.5966e-10
2.46331e-09
-1.15852e-10
-4.5966e-10
2.46331e-09
-1.15852e-10
-4.5966e-10
2.46331e-09
-1.15852e-10
-4.5966e-10
2.46331e-09
-1.15852e-10
-4.5966e-10
2.46331e-09
-1.15852e-10
-4.5966e-10
2.46331e-09
-1.15852e-10
-4.5966e-10
2.46331e-09
-1.15852e-10
-4.5966e-10
2.46331e-09
-1.15852e-10
-4.5966e-10
2.46331e-09
-1.15852e-10
-4.5966e-10
2.46331e-09
-1.15852e-10
-4.5966e-10
2.46331e-09
-1.15852e-10
-4.5966e-10
2.46331e-09
-1.15852e-10
-4.5966e-10
2.46331e-09
-1.15852e-10
-4.5966e-10
2.46331e-09
-1.15852e-10
-4.5966e-10
2.46331e-09
-1.15852e-10
-4.5966e-10
2.46331e-09
-1.15852e-10
-4.5966e-10
2.46331e-09
-1.15851e-10
-4.59659e-10
2.4633e-09
-1.15667e-10
-4.60224e-10
2.47169e-09
1.01327e-10
-1.56474e-10
-1.67046e-10
-2.11719e-10
1.42128e-06
1.43059e-06
1.44001e-06
1.44956e-06
1.45924e-06
1.46904e-06
1.47898e-06
1.48905e-06
1.49925e-06
1.5096e-06
1.52008e-06
1.53071e-06
1.54149e-06
1.55242e-06
1.5635e-06
1.57474e-06
1.58614e-06
1.5977e-06
1.60944e-06
1.62134e-06
1.63341e-06
5.98866e-12
-4.34273e-08
-4.3867e-08
-4.43148e-08
-4.47708e-08
-4.52354e-08
-4.57088e-08
-4.61912e-08
-4.66827e-08
-4.71838e-08
-4.76946e-08
-4.82154e-08
-4.87465e-08
-4.92882e-08
-4.98407e-08
-5.04044e-08
-5.09796e-08
-5.15668e-08
-5.2166e-08
-5.27779e-08
-5.34026e-08
-5.40407e-08
-1.35169e-10
-2.52232e-08
-2.54072e-08
-2.55939e-08
-2.57833e-08
-2.59756e-08
-2.61707e-08
-2.63688e-08
-2.65699e-08
-2.67741e-08
-2.69814e-08
-2.71919e-08
-2.74058e-08
-2.7623e-08
-2.78437e-08
-2.8068e-08
-2.82958e-08
-2.85274e-08
-2.87628e-08
-2.90021e-08
-2.92454e-08
-2.94928e-08
-1.36915e-10
-2.54313e-08
-2.5616e-08
-2.58035e-08
-2.59936e-08
-2.61866e-08
-2.63824e-08
-2.65812e-08
-2.6783e-08
-2.69879e-08
-2.71959e-08
-2.74072e-08
-2.76217e-08
-2.78396e-08
-2.8061e-08
-2.82859e-08
-2.85144e-08
-2.87466e-08
-2.89826e-08
-2.92226e-08
-2.94665e-08
-2.97145e-08
-1.36807e-10
-2.56424e-08
-2.58279e-08
-2.60162e-08
-2.62072e-08
-2.6401e-08
-2.65977e-08
-2.67974e-08
-2.7e-08
-2.72058e-08
-2.74147e-08
-2.76268e-08
-2.78422e-08
-2.8061e-08
-2.82832e-08
-2.8509e-08
-2.87384e-08
-2.89715e-08
-2.92084e-08
-2.94492e-08
-2.9694e-08
-2.99429e-08
-1.36716e-10
-2.58571e-08
-2.60436e-08
-2.62327e-08
-2.64246e-08
-2.66193e-08
-2.68169e-08
-2.70175e-08
-2.7221e-08
-2.74277e-08
-2.76375e-08
-2.78505e-08
-2.80669e-08
-2.82866e-08
-2.85098e-08
-2.87364e-08
-2.89668e-08
-2.92008e-08
-2.94387e-08
-2.96804e-08
-2.99262e-08
-3.0176e-08
-1.36624e-10
-2.60763e-08
-2.62637e-08
-2.64537e-08
-2.66466e-08
-2.68423e-08
-2.70408e-08
-2.72424e-08
-2.74469e-08
-2.76545e-08
-2.78653e-08
-2.80794e-08
-2.82967e-08
-2.85174e-08
-2.87416e-08
-2.89693e-08
-2.92006e-08
-2.94357e-08
-2.96745e-08
-2.99173e-08
-3.01641e-08
-3.04149e-08
-1.36533e-10
-2.62998e-08
-2.64882e-08
-2.66793e-08
-2.68732e-08
-2.70699e-08
-2.72695e-08
-2.7472e-08
-2.76776e-08
-2.78863e-08
-2.80981e-08
-2.83132e-08
-2.85316e-08
-2.87534e-08
-2.89787e-08
-2.92075e-08
-2.94399e-08
-2.96761e-08
-2.9916e-08
-3.01599e-08
-3.04078e-08
-3.06597e-08
-1.36442e-10
-2.65278e-08
-2.67173e-08
-2.69094e-08
-2.71044e-08
-2.73022e-08
-2.75028e-08
-2.77065e-08
-2.79132e-08
-2.8123e-08
-2.8336e-08
-2.85522e-08
-2.87717e-08
-2.89947e-08
-2.92211e-08
-2.9451e-08
-2.96847e-08
-2.9922e-08
-3.01632e-08
-3.04082e-08
-3.06573e-08
-3.09105e-08
-1.3635e-10
-2.67556e-08
-2.69461e-08
-2.71395e-08
-2.73356e-08
-2.75345e-08
-2.77364e-08
-2.79412e-08
-2.81491e-08
-2.83601e-08
-2.85742e-08
-2.87917e-08
-2.90124e-08
-2.92365e-08
-2.94642e-08
-2.96954e-08
-2.99303e-08
-3.01689e-08
-3.04113e-08
-3.06577e-08
-3.0908e-08
-3.11625e-08
-1.36189e-10
-2.68444e-08
-2.70352e-08
-2.72286e-08
-2.74248e-08
-2.76239e-08
-2.78259e-08
-2.80308e-08
-2.82388e-08
-2.84499e-08
-2.86642e-08
-2.88817e-08
-2.91026e-08
-2.93268e-08
-2.95545e-08
-2.97858e-08
-3.00208e-08
-3.02594e-08
-3.05019e-08
-3.07483e-08
-3.09987e-08
-3.12532e-08
-1.3621e-10
-2.69312e-08
-2.7122e-08
-2.73155e-08
-2.75117e-08
-2.77109e-08
-2.79129e-08
-2.81178e-08
-2.83258e-08
-2.8537e-08
-2.87512e-08
-2.89687e-08
-2.91896e-08
-2.94138e-08
-2.96415e-08
-2.98727e-08
-3.01075e-08
-3.03461e-08
-3.05885e-08
-3.08348e-08
-3.10851e-08
-3.13394e-08
-1.36332e-10
-2.70199e-08
-2.72107e-08
-2.74043e-08
-2.76006e-08
-2.77998e-08
-2.80019e-08
-2.82069e-08
-2.8415e-08
-2.86261e-08
-2.88404e-08
-2.90579e-08
-2.92788e-08
-2.9503e-08
-2.97306e-08
-2.99619e-08
-3.01967e-08
-3.04352e-08
-3.06775e-08
-3.09238e-08
-3.1174e-08
-3.14283e-08
-1.36439e-10
-2.71105e-08
-2.73014e-08
-2.74951e-08
-2.76916e-08
-2.78908e-08
-2.8093e-08
-2.82981e-08
-2.85062e-08
-2.87174e-08
-2.89318e-08
-2.91494e-08
-2.93702e-08
-2.95945e-08
-2.98222e-08
-3.00534e-08
-3.02882e-08
-3.05267e-08
-3.07691e-08
-3.10153e-08
-3.12654e-08
-3.15196e-08
-1.36546e-10
-2.7203e-08
-2.73941e-08
-2.75879e-08
-2.77845e-08
-2.79839e-08
-2.81861e-08
-2.83914e-08
-2.85996e-08
-2.88109e-08
-2.90253e-08
-2.9243e-08
-2.9464e-08
-2.96883e-08
-2.9916e-08
-3.01473e-08
-3.03822e-08
-3.06207e-08
-3.08631e-08
-3.11093e-08
-3.13594e-08
-3.16136e-08
-1.36653e-10
-2.72974e-08
-2.74887e-08
-2.76826e-08
-2.78794e-08
-2.80789e-08
-2.82814e-08
-2.84867e-08
-2.86951e-08
-2.89065e-08
-2.91211e-08
-2.93389e-08
-2.95599e-08
-2.97844e-08
-3.00122e-08
-3.02436e-08
-3.04785e-08
-3.07172e-08
-3.09596e-08
-3.12058e-08
-3.1456e-08
-3.17103e-08
-1.3676e-10
-2.73937e-08
-2.75852e-08
-2.77794e-08
-2.79763e-08
-2.8176e-08
-2.83786e-08
-2.85842e-08
-2.87927e-08
-2.90043e-08
-2.9219e-08
-2.9437e-08
-2.96582e-08
-2.98827e-08
-3.01107e-08
-3.03422e-08
-3.05773e-08
-3.0816e-08
-3.10585e-08
-3.13049e-08
-3.15552e-08
-3.18095e-08
-1.36866e-10
-2.7492e-08
-2.76837e-08
-2.7878e-08
-2.80752e-08
-2.82751e-08
-2.84779e-08
-2.86837e-08
-2.88924e-08
-2.91042e-08
-2.93191e-08
-2.95373e-08
-2.97587e-08
-2.99834e-08
-3.02115e-08
-3.04432e-08
-3.06784e-08
-3.09173e-08
-3.116e-08
-3.14064e-08
-3.16568e-08
-3.19113e-08
-1.36973e-10
-2.75921e-08
-2.7784e-08
-2.79787e-08
-2.81761e-08
-2.83763e-08
-2.85793e-08
-2.87853e-08
-2.89943e-08
-2.92063e-08
-2.94214e-08
-2.96398e-08
-2.98614e-08
-3.00863e-08
-3.03147e-08
-3.05465e-08
-3.07819e-08
-3.1021e-08
-3.12638e-08
-3.15105e-08
-3.17611e-08
-3.20157e-08
-1.37079e-10
-2.76941e-08
-2.78864e-08
-2.80813e-08
-2.82789e-08
-2.84794e-08
-2.86827e-08
-2.8889e-08
-2.90982e-08
-2.93105e-08
-2.95259e-08
-2.97445e-08
-2.99663e-08
-3.01915e-08
-3.04201e-08
-3.06522e-08
-3.08879e-08
-3.11271e-08
-3.13702e-08
-3.1617e-08
-3.18678e-08
-3.21226e-08
-1.37185e-10
-2.77981e-08
-2.79906e-08
-2.81858e-08
-2.83838e-08
-2.85845e-08
-2.87882e-08
-2.89947e-08
-2.92042e-08
-2.94168e-08
-2.96325e-08
-2.98514e-08
-3.00735e-08
-3.0299e-08
-3.05278e-08
-3.07602e-08
-3.09961e-08
-3.12357e-08
-3.1479e-08
-3.17261e-08
-3.19771e-08
-3.22322e-08
-1.37291e-10
-2.79039e-08
-2.80968e-08
-2.82923e-08
-2.84906e-08
-2.86917e-08
-2.88956e-08
-2.91025e-08
-2.93124e-08
-2.95252e-08
-2.97413e-08
-2.99605e-08
-3.01829e-08
-3.04087e-08
-3.06379e-08
-3.08706e-08
-3.11068e-08
-3.13466e-08
-3.15902e-08
-3.18377e-08
-3.2089e-08
-3.23443e-08
-1.37396e-10
-2.80116e-08
-2.82049e-08
-2.84008e-08
-2.85994e-08
-2.88009e-08
-2.90052e-08
-2.92124e-08
-2.94226e-08
-2.96359e-08
-2.98522e-08
-3.00718e-08
-3.02946e-08
-3.05207e-08
-3.07503e-08
-3.09832e-08
-3.12198e-08
-3.146e-08
-3.1704e-08
-3.19517e-08
-3.22034e-08
-3.2459e-08
-1.37501e-10
-2.81134e-08
-2.8307e-08
-2.85031e-08
-2.87021e-08
-2.89038e-08
-2.91084e-08
-2.93159e-08
-2.95263e-08
-2.97398e-08
-2.99565e-08
-3.01763e-08
-3.03993e-08
-3.06257e-08
-3.08555e-08
-3.10888e-08
-3.13256e-08
-3.1566e-08
-3.18102e-08
-3.20581e-08
-3.231e-08
-3.25659e-08
-1.37615e-10
-3.05914e-08
-3.08018e-08
-3.10152e-08
-3.12315e-08
-3.14509e-08
-3.16734e-08
-3.1899e-08
-3.21279e-08
-3.23601e-08
-3.25957e-08
-3.28347e-08
-3.30773e-08
-3.33235e-08
-3.35733e-08
-3.3827e-08
-3.40845e-08
-3.43459e-08
-3.46114e-08
-3.48811e-08
-3.5155e-08
-3.54331e-08
-1.40665e-10
)
;

boundaryField
{
    inlet
    {
        type            calculated;
        value           uniform 0;
    }
    outlet2
    {
        type            calculated;
        value           uniform 0;
    }
    outlet1
    {
        type            calculated;
        value           uniform 0;
    }
    wall
    {
        type            calculated;
        value           uniform 0;
    }
    symmetryBottom
    {
        type            symmetry;
    }
    symmetryZ0
    {
        type            symmetry;
    }
    symmetryZ05
    {
        type            symmetry;
    }
}


// ************************************************************************* //
