/*--------------------------------*- C++ -*----------------------------------*\
| =========                 |                                                 |
| \\      /  F ield         | OpenFOAM: The Open Source CFD Toolbox           |
|  \\    /   O peration     | Version:  2412                                  |
|   \\  /    A nd           | Website:  www.openfoam.com                      |
|    \\/     M anipulation  |                                                 |
\*---------------------------------------------------------------------------*/
FoamFile
{
    version     2.0;
    format      ascii;
    arch        "LSB;label=32;scalar=64";
    class       volVectorField;
    location    "9.13819e-07";
    object      rhoU_dof3;
}
// * * * * * * * * * * * * * * * * * * * * * * * * * * * * * * * * * * * * * //

dimensions      [0 0 0 0 0 0 0];

internalField   nonuniform List<vector> 
625
(
(0.000523142 6.91194e-09 -0.000583423)
(0.000471219 5.59406e-09 -0.000525387)
(0.000412658 4.18782e-09 1.22526e-11)
(0.000523151 -3.30685e-07 -0.000583445)
(0.000471227 -3.05185e-07 -0.000525408)
(0.000412665 -2.71719e-07 -1.93218e-12)
(0.000523151 -3.30699e-07 -0.000583433)
(0.000471227 -3.05197e-07 -0.000525396)
(0.000412665 -2.71711e-07 -2.27706e-12)
(0.000523151 -3.30699e-07 -0.000583433)
(0.000471227 -3.05198e-07 -0.000525396)
(0.000412665 -2.71712e-07 -2.27668e-12)
(0.000523151 -3.30699e-07 -0.000583433)
(0.000471227 -3.05198e-07 -0.000525396)
(0.000412665 -2.71712e-07 -2.27668e-12)
(0.000523151 -3.30699e-07 -0.000583433)
(0.000471227 -3.05198e-07 -0.000525396)
(0.000412665 -2.71712e-07 -2.27668e-12)
(0.000523151 -3.30699e-07 -0.000583433)
(0.000471227 -3.05198e-07 -0.000525396)
(0.000412665 -2.71712e-07 -2.27668e-12)
(0.000523151 -3.30699e-07 -0.000583433)
(0.000471227 -3.05198e-07 -0.000525396)
(0.000412665 -2.71712e-07 -2.27668e-12)
(0.000523151 -3.30699e-07 -0.000583433)
(0.000471227 -3.05198e-07 -0.000525396)
(0.000412665 -2.71712e-07 -2.27668e-12)
(0.000523151 -3.30699e-07 -0.000583433)
(0.000471227 -3.05198e-07 -0.000525396)
(0.000412665 -2.71712e-07 -2.27668e-12)
(0.000523151 -3.30699e-07 -0.000583433)
(0.000471227 -3.05198e-07 -0.000525396)
(0.000412665 -2.71712e-07 -2.27668e-12)
(0.000523151 -3.30699e-07 -0.000583433)
(0.000471227 -3.05198e-07 -0.000525396)
(0.000412665 -2.71712e-07 -2.27668e-12)
(0.000523151 -3.30699e-07 -0.000583433)
(0.000471227 -3.05198e-07 -0.000525396)
(0.000412665 -2.71712e-07 -2.27668e-12)
(0.000523151 -3.30699e-07 -0.000583433)
(0.000471227 -3.05198e-07 -0.000525396)
(0.000412665 -2.71712e-07 -2.27668e-12)
(0.000523151 -3.30699e-07 -0.000583433)
(0.000471227 -3.05198e-07 -0.000525396)
(0.000412665 -2.71712e-07 -2.27668e-12)
(0.000523151 -3.30699e-07 -0.000583433)
(0.000471227 -3.05198e-07 -0.000525396)
(0.000412665 -2.71712e-07 -2.27668e-12)
(0.000523151 -3.30699e-07 -0.000583433)
(0.000471227 -3.05198e-07 -0.000525396)
(0.000412665 -2.71712e-07 -2.27668e-12)
(0.000523151 -3.30699e-07 -0.000583433)
(0.000471227 -3.05198e-07 -0.000525396)
(0.000412665 -2.71712e-07 -2.27668e-12)
(0.000523151 -3.30699e-07 -0.000583433)
(0.000471227 -3.05198e-07 -0.000525396)
(0.000412665 -2.71712e-07 -2.27668e-12)
(0.000523151 -3.30699e-07 -0.000583433)
(0.000471227 -3.05198e-07 -0.000525396)
(0.000412665 -2.71712e-07 -2.27668e-12)
(0.000523151 -3.30699e-07 -0.000583433)
(0.000471227 -3.05198e-07 -0.000525396)
(0.000412665 -2.71712e-07 -2.27668e-12)
(0.000523151 -3.30699e-07 -0.000583433)
(0.000471227 -3.05198e-07 -0.000525396)
(0.000412665 -2.71712e-07 -2.27704e-12)
(0.000523151 -3.30699e-07 -0.000583433)
(0.000471227 -3.05198e-07 -0.000525396)
(0.000412665 -2.71682e-07 -3.75441e-12)
(0.000523151 -3.30715e-07 -0.000583433)
(0.000471227 -3.05213e-07 -0.000525396)
(0.000412195 -2.43451e-07 -2.75128e-09)
(0.000523279 -3.38429e-07 -0.000583568)
(0.000471332 -3.11557e-07 -0.000525506)
(0.000470637 -2.68066e-07 -0.000525507)
(0.000482794 2.82582e-08 -0.0005788)
(0.000482791 2.85712e-08 -0.000579117)
(0.000482788 2.88903e-08 -0.000579439)
(0.000482785 2.92159e-08 -0.000579766)
(0.000482782 2.9548e-08 -0.000580098)
(0.000482779 2.98868e-08 -0.000580436)
(0.000482776 3.02326e-08 -0.000580779)
(0.000482773 3.05855e-08 -0.000581127)
(0.000482769 3.09458e-08 -0.000581482)
(0.000482766 3.13137e-08 -0.000581843)
(0.000482763 3.16893e-08 -0.000582209)
(0.000482759 3.2073e-08 -0.000582582)
(0.000482756 3.24649e-08 -0.000582961)
(0.000482752 3.28654e-08 -0.000583347)
(0.000482749 3.32746e-08 -0.00058374)
(0.000482745 3.36929e-08 -0.000584139)
(0.000482741 3.41206e-08 -0.000584546)
(0.000482738 3.45578e-08 -0.00058496)
(0.000482734 3.50051e-08 -0.000585381)
(0.00048273 3.54625e-08 -0.00058581)
(0.000482726 3.59306e-08 -0.000586247)
(0.000514447 3.72639e-08 -1.99517e-11)
(0.00049297 -3.12459e-07 -0.000549343)
(0.000493038 -3.14652e-07 -0.000549417)
(0.000493107 -3.16876e-07 -0.000549492)
(0.000493177 -3.19131e-07 -0.000549568)
(0.000493248 -3.21419e-07 -0.000549645)
(0.00049332 -3.2374e-07 -0.000549723)
(0.000493393 -3.26095e-07 -0.000549803)
(0.000493468 -3.28484e-07 -0.000549883)
(0.000493543 -3.30908e-07 -0.000549965)
(0.000493619 -3.33368e-07 -0.000550048)
(0.000493697 -3.35866e-07 -0.000550132)
(0.000493776 -3.38401e-07 -0.000550217)
(0.000493856 -3.40974e-07 -0.000550304)
(0.000493937 -3.43587e-07 -0.000550392)
(0.000494019 -3.4624e-07 -0.000550481)
(0.000494103 -3.48935e-07 -0.000550571)
(0.000494188 -3.51671e-07 -0.000550664)
(0.000494274 -3.54451e-07 -0.000550757)
(0.000494362 -3.57276e-07 -0.000550852)
(0.000494451 -3.60145e-07 -0.000550948)
(0.000494542 -3.63061e-07 -0.000551046)
(0.000527135 -3.92616e-07 -1.13207e-11)
(0.000492615 -3.12703e-07 -0.000549016)
(0.00049268 -3.14901e-07 -0.000549088)
(0.000492747 -3.17129e-07 -0.000549162)
(0.000492815 -3.1939e-07 -0.000549236)
(0.000492883 -3.21683e-07 -0.000549311)
(0.000492953 -3.24008e-07 -0.000549388)
(0.000493023 -3.26368e-07 -0.000549465)
(0.000493095 -3.28763e-07 -0.000549544)
(0.000493167 -3.31193e-07 -0.000549624)
(0.000493241 -3.33659e-07 -0.000549705)
(0.000493316 -3.36162e-07 -0.000549787)
(0.000493391 -3.38703e-07 -0.00054987)
(0.000493468 -3.41282e-07 -0.000549955)
(0.000493547 -3.43902e-07 -0.000550041)
(0.000493626 -3.46561e-07 -0.000550128)
(0.000493707 -3.49263e-07 -0.000550217)
(0.000493789 -3.52006e-07 -0.000550307)
(0.000493872 -3.54793e-07 -0.000550398)
(0.000493956 -3.57625e-07 -0.000550491)
(0.000494042 -3.60502e-07 -0.000550586)
(0.000494129 -3.63426e-07 -0.000550682)
(0.000526686 -3.93465e-07 -1.08827e-11)
(0.000492261 -3.12485e-07 -0.000548622)
(0.000492324 -3.14679e-07 -0.000548691)
(0.000492388 -3.16904e-07 -0.000548761)
(0.000492453 -3.19161e-07 -0.000548833)
(0.000492519 -3.2145e-07 -0.000548905)
(0.000492586 -3.23772e-07 -0.000548979)
(0.000492654 -3.26128e-07 -0.000549053)
(0.000492723 -3.28519e-07 -0.000549129)
(0.000492792 -3.30945e-07 -0.000549206)
(0.000492863 -3.33407e-07 -0.000549283)
(0.000492935 -3.35906e-07 -0.000549362)
(0.000493008 -3.38443e-07 -0.000549443)
(0.000493082 -3.41018e-07 -0.000549524)
(0.000493157 -3.43633e-07 -0.000549607)
(0.000493234 -3.46288e-07 -0.000549691)
(0.000493311 -3.48984e-07 -0.000549776)
(0.00049339 -3.51723e-07 -0.000549862)
(0.00049347 -3.54505e-07 -0.00054995)
(0.000493551 -3.57332e-07 -0.00055004)
(0.000493634 -3.60204e-07 -0.00055013)
(0.000493718 -3.63122e-07 -0.000550222)
(0.000526241 -3.93131e-07 -1.05419e-11)
(0.000491907 -3.12303e-07 -0.000548228)
(0.000491968 -3.14495e-07 -0.000548295)
(0.000492029 -3.16718e-07 -0.000548363)
(0.000492092 -3.18972e-07 -0.000548431)
(0.000492155 -3.21258e-07 -0.000548501)
(0.000492219 -3.23578e-07 -0.000548571)
(0.000492285 -3.25931e-07 -0.000548643)
(0.000492351 -3.28319e-07 -0.000548715)
(0.000492418 -3.30742e-07 -0.000548789)
(0.000492486 -3.33201e-07 -0.000548864)
(0.000492555 -3.35697e-07 -0.00054894)
(0.000492625 -3.3823e-07 -0.000549017)
(0.000492696 -3.40803e-07 -0.000549095)
(0.000492768 -3.43414e-07 -0.000549174)
(0.000492842 -3.46066e-07 -0.000549255)
(0.000492916 -3.48759e-07 -0.000549337)
(0.000492992 -3.51494e-07 -0.00054942)
(0.000493069 -3.54273e-07 -0.000549504)
(0.000493147 -3.57096e-07 -0.00054959)
(0.000493226 -3.59964e-07 -0.000549677)
(0.000493307 -3.62878e-07 -0.000549766)
(0.000525797 -3.92862e-07 -1.01748e-11)
(0.000491554 -3.12122e-07 -0.000547835)
(0.000491612 -3.14311e-07 -0.000547899)
(0.000491671 -3.16531e-07 -0.000547964)
(0.000491731 -3.18783e-07 -0.00054803)
(0.000491792 -3.21067e-07 -0.000548096)
(0.000491853 -3.23384e-07 -0.000548164)
(0.000491916 -3.25734e-07 -0.000548233)
(0.000491979 -3.28119e-07 -0.000548302)
(0.000492043 -3.30539e-07 -0.000548373)
(0.000492109 -3.32995e-07 -0.000548445)
(0.000492175 -3.35488e-07 -0.000548517)
(0.000492242 -3.38018e-07 -0.000548591)
(0.00049231 -3.40587e-07 -0.000548666)
(0.00049238 -3.43195e-07 -0.000548742)
(0.00049245 -3.45844e-07 -0.000548819)
(0.000492522 -3.48533e-07 -0.000548898)
(0.000492594 -3.51265e-07 -0.000548977)
(0.000492668 -3.5404e-07 -0.000549058)
(0.000492743 -3.56859e-07 -0.000549141)
(0.000492819 -3.59724e-07 -0.000549224)
(0.000492896 -3.62634e-07 -0.000549309)
(0.000525352 -3.92594e-07 -9.8079e-12)
(0.0004912 -3.11941e-07 -0.000547442)
(0.000491256 -3.14128e-07 -0.000547504)
(0.000491313 -3.16345e-07 -0.000547566)
(0.00049137 -3.18594e-07 -0.000547629)
(0.000491428 -3.20875e-07 -0.000547692)
(0.000491487 -3.23189e-07 -0.000547757)
(0.000491547 -3.25537e-07 -0.000547823)
(0.000491608 -3.27919e-07 -0.000547889)
(0.000491669 -3.30336e-07 -0.000547957)
(0.000491732 -3.32789e-07 -0.000548025)
(0.000491795 -3.35279e-07 -0.000548095)
(0.00049186 -3.37806e-07 -0.000548166)
(0.000491925 -3.40372e-07 -0.000548237)
(0.000491991 -3.42977e-07 -0.00054831)
(0.000492059 -3.45622e-07 -0.000548384)
(0.000492127 -3.48308e-07 -0.000548459)
(0.000492197 -3.51036e-07 -0.000548535)
(0.000492267 -3.53808e-07 -0.000548613)
(0.000492339 -3.56623e-07 -0.000548691)
(0.000492412 -3.59484e-07 -0.000548771)
(0.000492486 -3.62391e-07 -0.000548852)
(0.000524909 -3.92326e-07 -9.44105e-12)
(0.000490847 -3.1176e-07 -0.00054705)
(0.000490901 -3.13944e-07 -0.000547108)
(0.000490955 -3.16159e-07 -0.000547168)
(0.000491009 -3.18405e-07 -0.000547228)
(0.000491065 -3.20684e-07 -0.000547289)
(0.000491121 -3.22995e-07 -0.00054735)
(0.000491178 -3.2534e-07 -0.000547413)
(0.000491236 -3.27719e-07 -0.000547477)
(0.000491295 -3.30133e-07 -0.000547541)
(0.000491355 -3.32583e-07 -0.000547607)
(0.000491416 -3.3507e-07 -0.000547673)
(0.000491477 -3.37594e-07 -0.000547741)
(0.00049154 -3.40157e-07 -0.000547809)
(0.000491603 -3.42758e-07 -0.000547879)
(0.000491667 -3.454e-07 -0.000547949)
(0.000491733 -3.48083e-07 -0.000548021)
(0.000491799 -3.50807e-07 -0.000548094)
(0.000491867 -3.53575e-07 -0.000548168)
(0.000491935 -3.56387e-07 -0.000548243)
(0.000492005 -3.59244e-07 -0.000548319)
(0.000492075 -3.62147e-07 -0.000548396)
(0.000524465 -3.92058e-07 -9.07423e-12)
(0.000490494 -3.11579e-07 -0.000546658)
(0.000490545 -3.13761e-07 -0.000546713)
(0.000490597 -3.15973e-07 -0.00054677)
(0.000490649 -3.18217e-07 -0.000546827)
(0.000490702 -3.20492e-07 -0.000546885)
(0.000490756 -3.22801e-07 -0.000546944)
(0.00049081 -3.25143e-07 -0.000547004)
(0.000490866 -3.27519e-07 -0.000547064)
(0.000490922 -3.29931e-07 -0.000547126)
(0.000490979 -3.32378e-07 -0.000547188)
(0.000491036 -3.34861e-07 -0.000547251)
(0.000491095 -3.37382e-07 -0.000547316)
(0.000491155 -3.39941e-07 -0.000547381)
(0.000491215 -3.4254e-07 -0.000547447)
(0.000491277 -3.45178e-07 -0.000547514)
(0.000491339 -3.47857e-07 -0.000547583)
(0.000491402 -3.50579e-07 -0.000547652)
(0.000491466 -3.53343e-07 -0.000547723)
(0.000491532 -3.56151e-07 -0.000547794)
(0.000491598 -3.59004e-07 -0.000547867)
(0.000491666 -3.61903e-07 -0.000547941)
(0.000524022 -3.91791e-07 -8.70763e-12)
(0.000490141 -3.11414e-07 -0.000546265)
(0.00049019 -3.13593e-07 -0.000546318)
(0.000490239 -3.15802e-07 -0.000546372)
(0.000490289 -3.18043e-07 -0.000546426)
(0.000490339 -3.20317e-07 -0.000546481)
(0.00049039 -3.22622e-07 -0.000546537)
(0.000490442 -3.24962e-07 -0.000546594)
(0.000490495 -3.27335e-07 -0.000546652)
(0.000490548 -3.29743e-07 -0.00054671)
(0.000490602 -3.32187e-07 -0.000546769)
(0.000490657 -3.34668e-07 -0.00054683)
(0.000490713 -3.37186e-07 -0.000546891)
(0.00049077 -3.39742e-07 -0.000546953)
(0.000490827 -3.42337e-07 -0.000547016)
(0.000490886 -3.44972e-07 -0.00054708)
(0.000490945 -3.47648e-07 -0.000547145)
(0.000491005 -3.50366e-07 -0.000547211)
(0.000491066 -3.53126e-07 -0.000547278)
(0.000491128 -3.55931e-07 -0.000547346)
(0.000491191 -3.5878e-07 -0.000547415)
(0.000491256 -3.61675e-07 -0.000547485)
(0.000523579 -3.91539e-07 -8.35574e-12)
(0.000489782 -3.11666e-07 -0.000545865)
(0.000489828 -3.13846e-07 -0.000545916)
(0.000489874 -3.16056e-07 -0.000545966)
(0.000489921 -3.18297e-07 -0.000546018)
(0.000489969 -3.20571e-07 -0.00054607)
(0.000490017 -3.22877e-07 -0.000546123)
(0.000490067 -3.25217e-07 -0.000546177)
(0.000490116 -3.27591e-07 -0.000546232)
(0.000490167 -3.29999e-07 -0.000546287)
(0.000490218 -3.32444e-07 -0.000546343)
(0.000490271 -3.34924e-07 -0.0005464)
(0.000490323 -3.37443e-07 -0.000546458)
(0.000490377 -3.39999e-07 -0.000546517)
(0.000490432 -3.42594e-07 -0.000546577)
(0.000490487 -3.45229e-07 -0.000546637)
(0.000490543 -3.47905e-07 -0.000546699)
(0.0004906 -3.50623e-07 -0.000546761)
(0.000490658 -3.53384e-07 -0.000546824)
(0.000490717 -3.56189e-07 -0.000546889)
(0.000490777 -3.59038e-07 -0.000546954)
(0.000490838 -3.61933e-07 -0.000547021)
(0.000523128 -3.91754e-07 -6.89831e-12)
(0.000489422 -3.11918e-07 -0.000545466)
(0.000489465 -3.14098e-07 -0.000545513)
(0.000489509 -3.16309e-07 -0.000545561)
(0.000489554 -3.18551e-07 -0.00054561)
(0.000489599 -3.20825e-07 -0.000545659)
(0.000489645 -3.23131e-07 -0.00054571)
(0.000489691 -3.25471e-07 -0.00054576)
(0.000489738 -3.27845e-07 -0.000545812)
(0.000489786 -3.30254e-07 -0.000545864)
(0.000489835 -3.32699e-07 -0.000545917)
(0.000489884 -3.3518e-07 -0.000545971)
(0.000489934 -3.37699e-07 -0.000546026)
(0.000489985 -3.40255e-07 -0.000546081)
(0.000490036 -3.42851e-07 -0.000546138)
(0.000490089 -3.45486e-07 -0.000546195)
(0.000490142 -3.48163e-07 -0.000546253)
(0.000490196 -3.50881e-07 -0.000546312)
(0.000490251 -3.53642e-07 -0.000546372)
(0.000490306 -3.56446e-07 -0.000546433)
(0.000490363 -3.59296e-07 -0.000546494)
(0.00049042 -3.62191e-07 -0.000546557)
(0.000522677 -3.9197e-07 -6.58164e-12)
(0.000489063 -3.1217e-07 -0.000545067)
(0.000489104 -3.1435e-07 -0.000545112)
(0.000489145 -3.16561e-07 -0.000545157)
(0.000489187 -3.18804e-07 -0.000545203)
(0.000489229 -3.21078e-07 -0.000545249)
(0.000489273 -3.23385e-07 -0.000545296)
(0.000489316 -3.25725e-07 -0.000545344)
(0.000489361 -3.281e-07 -0.000545392)
(0.000489406 -3.30509e-07 -0.000545442)
(0.000489452 -3.32954e-07 -0.000545492)
(0.000489498 -3.35436e-07 -0.000545542)
(0.000489545 -3.37955e-07 -0.000545594)
(0.000489593 -3.40511e-07 -0.000545646)
(0.000489641 -3.43107e-07 -0.000545699)
(0.000489691 -3.45743e-07 -0.000545753)
(0.000489741 -3.48419e-07 -0.000545807)
(0.000489792 -3.51138e-07 -0.000545863)
(0.000489843 -3.53899e-07 -0.000545919)
(0.000489896 -3.56704e-07 -0.000545976)
(0.000489949 -3.59553e-07 -0.000546035)
(0.000490003 -3.62449e-07 -0.000546094)
(0.000522227 -3.92185e-07 -6.40066e-12)
(0.000488704 -3.12421e-07 -0.000544668)
(0.000488742 -3.14602e-07 -0.00054471)
(0.000488781 -3.16813e-07 -0.000544752)
(0.00048882 -3.19056e-07 -0.000544795)
(0.00048886 -3.21331e-07 -0.000544839)
(0.000488901 -3.23638e-07 -0.000544883)
(0.000488942 -3.25979e-07 -0.000544928)
(0.000488983 -3.28354e-07 -0.000544973)
(0.000489026 -3.30763e-07 -0.000545019)
(0.000489069 -3.33209e-07 -0.000545066)
(0.000489112 -3.35691e-07 -0.000545114)
(0.000489156 -3.3821e-07 -0.000545162)
(0.000489201 -3.40767e-07 -0.000545211)
(0.000489247 -3.43363e-07 -0.00054526)
(0.000489293 -3.45999e-07 -0.000545311)
(0.00048934 -3.48676e-07 -0.000545362)
(0.000489388 -3.51394e-07 -0.000545414)
(0.000489436 -3.54155e-07 -0.000545467)
(0.000489485 -3.5696e-07 -0.000545521)
(0.000489535 -3.5981e-07 -0.000545575)
(0.000489586 -3.62706e-07 -0.000545631)
(0.000521777 -3.92399e-07 -6.22017e-12)
(0.000488345 -3.12671e-07 -0.000544269)
(0.00048838 -3.14853e-07 -0.000544308)
(0.000488417 -3.17065e-07 -0.000544348)
(0.000488454 -3.19308e-07 -0.000544388)
(0.000488491 -3.21583e-07 -0.000544429)
(0.000488529 -3.23891e-07 -0.00054447)
(0.000488567 -3.26232e-07 -0.000544512)
(0.000488606 -3.28607e-07 -0.000544554)
(0.000488646 -3.31017e-07 -0.000544597)
(0.000488686 -3.33463e-07 -0.000544641)
(0.000488726 -3.35945e-07 -0.000544685)
(0.000488768 -3.38464e-07 -0.00054473)
(0.00048881 -3.41022e-07 -0.000544776)
(0.000488852 -3.43618e-07 -0.000544822)
(0.000488895 -3.46254e-07 -0.000544869)
(0.000488939 -3.48931e-07 -0.000544917)
(0.000488984 -3.5165e-07 -0.000544966)
(0.000489029 -3.54411e-07 -0.000545015)
(0.000489075 -3.57216e-07 -0.000545065)
(0.000489122 -3.60066e-07 -0.000545116)
(0.000489169 -3.62962e-07 -0.000545168)
(0.000521328 -3.92613e-07 -6.04007e-12)
(0.000487986 -3.12921e-07 -0.000543871)
(0.000488019 -3.15103e-07 -0.000543907)
(0.000488053 -3.17315e-07 -0.000543944)
(0.000488087 -3.19559e-07 -0.000543981)
(0.000488122 -3.21835e-07 -0.000544019)
(0.000488157 -3.24143e-07 -0.000544057)
(0.000488193 -3.26484e-07 -0.000544096)
(0.000488229 -3.2886e-07 -0.000544136)
(0.000488266 -3.3127e-07 -0.000544176)
(0.000488303 -3.33716e-07 -0.000544216)
(0.000488341 -3.36199e-07 -0.000544257)
(0.000488379 -3.38718e-07 -0.000544299)
(0.000488418 -3.41276e-07 -0.000544341)
(0.000488458 -3.43872e-07 -0.000544385)
(0.000488498 -3.46509e-07 -0.000544428)
(0.000488539 -3.49186e-07 -0.000544473)
(0.000488581 -3.51905e-07 -0.000544518)
(0.000488623 -3.54666e-07 -0.000544564)
(0.000488665 -3.57471e-07 -0.00054461)
(0.000488709 -3.60321e-07 -0.000544657)
(0.000488753 -3.63217e-07 -0.000544705)
(0.000520878 -3.92826e-07 -5.86036e-12)
(0.000487627 -3.13171e-07 -0.000543473)
(0.000487658 -3.15353e-07 -0.000543506)
(0.000487689 -3.17566e-07 -0.00054354)
(0.000487721 -3.1981e-07 -0.000543575)
(0.000487753 -3.22086e-07 -0.000543609)
(0.000487786 -3.24394e-07 -0.000543645)
(0.000487819 -3.26736e-07 -0.000543681)
(0.000487852 -3.29112e-07 -0.000543717)
(0.000487886 -3.31522e-07 -0.000543754)
(0.000487921 -3.33969e-07 -0.000543792)
(0.000487956 -3.36451e-07 -0.00054383)
(0.000487991 -3.38971e-07 -0.000543868)
(0.000488027 -3.41529e-07 -0.000543907)
(0.000488064 -3.44126e-07 -0.000543947)
(0.000488101 -3.46762e-07 -0.000543987)
(0.000488139 -3.4944e-07 -0.000544028)
(0.000488177 -3.52159e-07 -0.00054407)
(0.000488216 -3.5492e-07 -0.000544112)
(0.000488256 -3.57725e-07 -0.000544155)
(0.000488296 -3.60575e-07 -0.000544199)
(0.000488337 -3.63471e-07 -0.000544243)
(0.000520429 -3.93037e-07 -5.68104e-12)
(0.000487269 -3.1342e-07 -0.000543075)
(0.000487297 -3.15602e-07 -0.000543106)
(0.000487326 -3.17815e-07 -0.000543137)
(0.000487355 -3.2006e-07 -0.000543168)
(0.000487385 -3.22336e-07 -0.0005432)
(0.000487415 -3.24645e-07 -0.000543233)
(0.000487445 -3.26987e-07 -0.000543266)
(0.000487476 -3.29363e-07 -0.000543299)
(0.000487507 -3.31774e-07 -0.000543333)
(0.000487539 -3.34221e-07 -0.000543367)
(0.000487571 -3.36703e-07 -0.000543402)
(0.000487604 -3.39224e-07 -0.000543437)
(0.000487637 -3.41782e-07 -0.000543473)
(0.00048767 -3.44379e-07 -0.00054351)
(0.000487705 -3.47015e-07 -0.000543547)
(0.000487739 -3.49693e-07 -0.000543585)
(0.000487774 -3.52412e-07 -0.000543623)
(0.00048781 -3.55173e-07 -0.000543661)
(0.000487847 -3.57979e-07 -0.000543701)
(0.000487884 -3.60829e-07 -0.000543741)
(0.000487921 -3.63724e-07 -0.000543782)
(0.000519981 -3.93248e-07 -5.5021e-12)
(0.000486911 -3.13668e-07 -0.000542677)
(0.000486937 -3.15851e-07 -0.000542705)
(0.000486963 -3.18064e-07 -0.000542734)
(0.00048699 -3.20309e-07 -0.000542762)
(0.000487016 -3.22585e-07 -0.000542791)
(0.000487044 -3.24894e-07 -0.000542821)
(0.000487071 -3.27237e-07 -0.000542851)
(0.0004871 -3.29613e-07 -0.000542881)
(0.000487128 -3.32025e-07 -0.000542912)
(0.000487157 -3.34472e-07 -0.000542943)
(0.000487186 -3.36955e-07 -0.000542975)
(0.000487216 -3.39475e-07 -0.000543007)
(0.000487246 -3.42033e-07 -0.00054304)
(0.000487277 -3.4463e-07 -0.000543073)
(0.000487308 -3.47267e-07 -0.000543107)
(0.00048734 -3.49945e-07 -0.000543141)
(0.000487372 -3.52664e-07 -0.000543176)
(0.000487404 -3.55426e-07 -0.000543211)
(0.000487438 -3.58231e-07 -0.000543247)
(0.000487471 -3.61081e-07 -0.000543283)
(0.000487506 -3.63977e-07 -0.00054332)
(0.000519533 -3.93457e-07 -5.32354e-12)
(0.000486553 -3.13915e-07 -0.00054228)
(0.000486577 -3.16098e-07 -0.000542305)
(0.0004866 -3.18312e-07 -0.000542331)
(0.000486624 -3.20557e-07 -0.000542356)
(0.000486648 -3.22834e-07 -0.000542383)
(0.000486673 -3.25143e-07 -0.000542409)
(0.000486698 -3.27486e-07 -0.000542436)
(0.000486723 -3.29863e-07 -0.000542464)
(0.000486749 -3.32275e-07 -0.000542491)
(0.000486775 -3.34722e-07 -0.000542519)
(0.000486802 -3.37205e-07 -0.000542548)
(0.000486829 -3.39726e-07 -0.000542577)
(0.000486856 -3.42284e-07 -0.000542606)
(0.000486884 -3.44881e-07 -0.000542636)
(0.000486912 -3.47518e-07 -0.000542667)
(0.00048694 -3.50196e-07 -0.000542698)
(0.00048697 -3.52915e-07 -0.000542729)
(0.000486999 -3.55677e-07 -0.000542761)
(0.000487029 -3.58482e-07 -0.000542793)
(0.000487059 -3.61332e-07 -0.000542826)
(0.00048709 -3.64228e-07 -0.000542859)
(0.000519085 -3.93666e-07 -5.14537e-12)
(0.000486196 -3.14161e-07 -0.000541883)
(0.000486216 -3.16345e-07 -0.000541905)
(0.000486237 -3.18559e-07 -0.000541928)
(0.000486259 -3.20804e-07 -0.000541951)
(0.000486281 -3.23082e-07 -0.000541974)
(0.000486303 -3.25392e-07 -0.000541998)
(0.000486325 -3.27735e-07 -0.000542022)
(0.000486348 -3.30112e-07 -0.000542046)
(0.000486371 -3.32523e-07 -0.000542071)
(0.000486394 -3.34971e-07 -0.000542096)
(0.000486418 -3.37454e-07 -0.000542121)
(0.000486442 -3.39975e-07 -0.000542147)
(0.000486466 -3.42534e-07 -0.000542173)
(0.000486491 -3.45131e-07 -0.0005422)
(0.000486516 -3.47768e-07 -0.000542227)
(0.000486542 -3.50446e-07 -0.000542255)
(0.000486567 -3.53165e-07 -0.000542282)
(0.000486594 -3.55927e-07 -0.000542311)
(0.000486621 -3.58732e-07 -0.000542339)
(0.000486648 -3.61582e-07 -0.000542369)
(0.000486675 -3.64478e-07 -0.000542398)
(0.000518637 -3.93873e-07 -4.96758e-12)
(0.000485838 -3.14407e-07 -0.000541486)
(0.000485856 -3.16591e-07 -0.000541506)
(0.000485875 -3.18805e-07 -0.000541525)
(0.000485894 -3.21051e-07 -0.000541546)
(0.000485913 -3.23329e-07 -0.000541566)
(0.000485932 -3.25639e-07 -0.000541587)
(0.000485952 -3.27982e-07 -0.000541608)
(0.000485972 -3.30359e-07 -0.000541629)
(0.000485992 -3.32771e-07 -0.000541651)
(0.000486013 -3.35219e-07 -0.000541673)
(0.000486034 -3.37703e-07 -0.000541695)
(0.000486055 -3.40223e-07 -0.000541718)
(0.000486076 -3.42782e-07 -0.000541741)
(0.000486098 -3.4538e-07 -0.000541764)
(0.00048612 -3.48017e-07 -0.000541788)
(0.000486143 -3.50695e-07 -0.000541812)
(0.000486166 -3.53414e-07 -0.000541836)
(0.000486189 -3.56176e-07 -0.000541861)
(0.000486212 -3.58981e-07 -0.000541886)
(0.000486236 -3.61831e-07 -0.000541912)
(0.000486261 -3.64727e-07 -0.000541938)
(0.00051819 -3.94079e-07 -4.79018e-12)
(0.000485481 -3.14651e-07 -0.000541089)
(0.000485497 -3.16836e-07 -0.000541106)
(0.000485513 -3.1905e-07 -0.000541123)
(0.000485529 -3.21296e-07 -0.000541141)
(0.000485546 -3.23574e-07 -0.000541158)
(0.000485562 -3.25885e-07 -0.000541176)
(0.000485579 -3.28228e-07 -0.000541194)
(0.000485597 -3.30606e-07 -0.000541212)
(0.000485614 -3.33018e-07 -0.000541231)
(0.000485632 -3.35466e-07 -0.00054125)
(0.00048565 -3.3795e-07 -0.000541269)
(0.000485668 -3.40471e-07 -0.000541289)
(0.000485687 -3.4303e-07 -0.000541308)
(0.000485706 -3.45627e-07 -0.000541328)
(0.000485725 -3.48265e-07 -0.000541349)
(0.000485744 -3.50943e-07 -0.000541369)
(0.000485764 -3.53662e-07 -0.00054139)
(0.000485784 -3.56424e-07 -0.000541412)
(0.000485805 -3.59229e-07 -0.000541433)
(0.000485825 -3.62079e-07 -0.000541455)
(0.000485846 -3.64974e-07 -0.000541478)
(0.000517743 -3.94283e-07 -4.61316e-12)
(0.000485124 -3.14911e-07 -0.000540693)
(0.000485137 -3.17096e-07 -0.000540707)
(0.000485151 -3.19311e-07 -0.000540721)
(0.000485165 -3.21558e-07 -0.000540736)
(0.000485179 -3.23836e-07 -0.000540751)
(0.000485193 -3.26147e-07 -0.000540766)
(0.000485207 -3.28491e-07 -0.000540781)
(0.000485222 -3.30869e-07 -0.000540796)
(0.000485237 -3.33282e-07 -0.000540812)
(0.000485252 -3.3573e-07 -0.000540827)
(0.000485267 -3.38214e-07 -0.000540844)
(0.000485282 -3.40736e-07 -0.00054086)
(0.000485298 -3.43295e-07 -0.000540876)
(0.000485314 -3.45893e-07 -0.000540893)
(0.00048533 -3.48531e-07 -0.00054091)
(0.000485346 -3.51209e-07 -0.000540927)
(0.000485363 -3.53929e-07 -0.000540945)
(0.00048538 -3.56691e-07 -0.000540963)
(0.000485397 -3.59496e-07 -0.000540981)
(0.000485415 -3.62346e-07 -0.000540999)
(0.000485432 -3.65242e-07 -0.000541018)
(0.000517296 -3.94508e-07 -4.42924e-12)
(0.000484879 -3.21868e-07 -0.000540413)
(0.00048489 -3.241e-07 -0.000540425)
(0.000484902 -3.26364e-07 -0.000540438)
(0.000484914 -3.2866e-07 -0.00054045)
(0.000484926 -3.30988e-07 -0.000540463)
(0.000484939 -3.33349e-07 -0.000540476)
(0.000484951 -3.35744e-07 -0.000540489)
(0.000484964 -3.38174e-07 -0.000540502)
(0.000484977 -3.4064e-07 -0.000540516)
(0.00048499 -3.43141e-07 -0.000540529)
(0.000485003 -3.4568e-07 -0.000540543)
(0.000485017 -3.48256e-07 -0.000540557)
(0.000485031 -3.50871e-07 -0.000540571)
(0.000485044 -3.53526e-07 -0.000540586)
(0.000485059 -3.56221e-07 -0.000540601)
(0.000485073 -3.58958e-07 -0.000540616)
(0.000485088 -3.61737e-07 -0.000540631)
(0.000485102 -3.64559e-07 -0.000540646)
(0.000485117 -3.67426e-07 -0.000540662)
(0.000485133 -3.70338e-07 -0.000540678)
(0.000485148 -3.73297e-07 -0.000540694)
(0.000516975 -4.02268e-07 -2.26119e-11)
)
;

boundaryField
{
    inlet
    {
        type            calculated;
        value           uniform (0 0 0);
    }
    outlet2
    {
        type            calculated;
        value           uniform (0 0 0);
    }
    outlet1
    {
        type            calculated;
        value           uniform (0 0 0);
    }
    wall
    {
        type            calculated;
        value           uniform (0 0 0);
    }
    symmetryBottom
    {
        type            symmetry;
    }
    symmetryZ0
    {
        type            symmetry;
    }
    symmetryZ05
    {
        type            symmetry;
    }
}


// ************************************************************************* //
