/*--------------------------------*- C++ -*----------------------------------*\
| =========                 |                                                 |
| \\      /  F ield         | OpenFOAM: The Open Source CFD Toolbox           |
|  \\    /   O peration     | Version:  2412                                  |
|   \\  /    A nd           | Website:  www.openfoam.com                      |
|    \\/     M anipulation  |                                                 |
\*---------------------------------------------------------------------------*/
FoamFile
{
    version     2.0;
    format      ascii;
    arch        "LSB;label=32;scalar=64";
    class       volVectorField;
    location    "9.13819e-07";
    object      rhoU_dof0;
}
// * * * * * * * * * * * * * * * * * * * * * * * * * * * * * * * * * * * * * //

dimensions      [0 0 0 0 0 0 0];

internalField   nonuniform List<vector> 
625
(
(0.0751001 -2.4822e-07 -5.73177e-07)
(0.0640222 -3.96128e-07 -6.15275e-07)
(0.0640222 -3.96834e-07 7.09998e-09)
(0.0751015 -5.23076e-05 -5.73156e-07)
(0.0640235 -4.70847e-05 -6.15257e-07)
(0.0640235 -4.70855e-05 -2.49936e-10)
(0.0751001 -5.21646e-05 -5.73167e-07)
(0.0640222 -4.69527e-05 -6.15269e-07)
(0.0640222 -4.69534e-05 -1.68246e-10)
(0.0751001 -5.21651e-05 -5.73166e-07)
(0.0640222 -4.69531e-05 -6.15269e-07)
(0.0640222 -4.69538e-05 -1.68486e-10)
(0.0751001 -5.21651e-05 -5.73166e-07)
(0.0640222 -4.69531e-05 -6.15269e-07)
(0.0640222 -4.69538e-05 -1.68485e-10)
(0.0751001 -5.21651e-05 -5.73166e-07)
(0.0640222 -4.69531e-05 -6.15269e-07)
(0.0640222 -4.69538e-05 -1.68485e-10)
(0.0751001 -5.21651e-05 -5.73166e-07)
(0.0640222 -4.69531e-05 -6.15269e-07)
(0.0640222 -4.69538e-05 -1.68486e-10)
(0.0751001 -5.21651e-05 -5.73166e-07)
(0.0640222 -4.69531e-05 -6.15269e-07)
(0.0640222 -4.69538e-05 -1.68485e-10)
(0.0751001 -5.21651e-05 -5.73166e-07)
(0.0640222 -4.69531e-05 -6.15269e-07)
(0.0640222 -4.69538e-05 -1.68486e-10)
(0.0751001 -5.21651e-05 -5.73166e-07)
(0.0640222 -4.69531e-05 -6.15269e-07)
(0.0640222 -4.69538e-05 -1.68486e-10)
(0.0751001 -5.21651e-05 -5.73166e-07)
(0.0640222 -4.69531e-05 -6.15269e-07)
(0.0640222 -4.69538e-05 -1.68486e-10)
(0.0751001 -5.21651e-05 -5.73166e-07)
(0.0640222 -4.69531e-05 -6.15269e-07)
(0.0640222 -4.69538e-05 -1.68486e-10)
(0.0751001 -5.21651e-05 -5.73166e-07)
(0.0640222 -4.69531e-05 -6.15269e-07)
(0.0640222 -4.69538e-05 -1.68486e-10)
(0.0751001 -5.21651e-05 -5.73166e-07)
(0.0640222 -4.69531e-05 -6.15269e-07)
(0.0640222 -4.69538e-05 -1.68486e-10)
(0.0751001 -5.21651e-05 -5.73166e-07)
(0.0640222 -4.69531e-05 -6.15269e-07)
(0.0640222 -4.69538e-05 -1.68485e-10)
(0.0751001 -5.21651e-05 -5.73166e-07)
(0.0640222 -4.69531e-05 -6.15269e-07)
(0.0640222 -4.69538e-05 -1.68485e-10)
(0.0751001 -5.21651e-05 -5.73166e-07)
(0.0640222 -4.69531e-05 -6.15269e-07)
(0.0640222 -4.69538e-05 -1.68485e-10)
(0.0751001 -5.21651e-05 -5.73166e-07)
(0.0640222 -4.69531e-05 -6.15269e-07)
(0.0640222 -4.69538e-05 -1.68486e-10)
(0.0751001 -5.21651e-05 -5.73166e-07)
(0.0640222 -4.69531e-05 -6.15269e-07)
(0.0640222 -4.69538e-05 -1.68486e-10)
(0.0751001 -5.21651e-05 -5.73166e-07)
(0.0640222 -4.69531e-05 -6.15269e-07)
(0.0640222 -4.69538e-05 -1.68486e-10)
(0.0751001 -5.21651e-05 -5.73166e-07)
(0.0640222 -4.69531e-05 -6.15269e-07)
(0.0640222 -4.69538e-05 -1.68485e-10)
(0.0751001 -5.21651e-05 -5.73166e-07)
(0.0640222 -4.69531e-05 -6.15269e-07)
(0.0640222 -4.69538e-05 -1.68487e-10)
(0.0751001 -5.21651e-05 -5.73166e-07)
(0.0640222 -4.69531e-05 -6.15269e-07)
(0.0640222 -4.69538e-05 -1.65638e-10)
(0.0751001 -5.21651e-05 -5.73167e-07)
(0.0640222 -4.69537e-05 -6.15269e-07)
(0.0640223 -4.69576e-05 -4.16385e-09)
(0.0751006 -5.21945e-05 -5.73422e-07)
(0.0640199 -4.68144e-05 -6.15534e-07)
(0.0640199 -4.68183e-05 -6.18163e-07)
(0.0656143 5.12268e-06 -6.86568e-07)
(0.0656133 5.2021e-06 -6.86996e-07)
(0.0656123 5.28335e-06 -6.8743e-07)
(0.0656113 5.36649e-06 -6.87871e-07)
(0.0656102 5.45156e-06 -6.88319e-07)
(0.0656092 5.53864e-06 -6.88774e-07)
(0.0656081 5.62778e-06 -6.89235e-07)
(0.065607 5.71905e-06 -6.89704e-07)
(0.0656059 5.81252e-06 -6.90181e-07)
(0.0656048 5.90825e-06 -6.90665e-07)
(0.0656037 6.00633e-06 -6.91156e-07)
(0.0656026 6.10682e-06 -6.91656e-07)
(0.0656015 6.20982e-06 -6.92164e-07)
(0.0656003 6.31539e-06 -6.9268e-07)
(0.0655991 6.42363e-06 -6.93205e-07)
(0.0655979 6.53463e-06 -6.93738e-07)
(0.0655967 6.64848e-06 -6.94281e-07)
(0.0655955 6.76528e-06 -6.94833e-07)
(0.0655943 6.88513e-06 -6.95394e-07)
(0.0655931 7.00814e-06 -6.95965e-07)
(0.0655918 7.13441e-06 -6.96546e-07)
(0.0656543 7.13456e-06 -1.08563e-08)
(0.0670643 -4.6564e-05 -6.43372e-07)
(0.0670733 -4.68684e-05 -6.4347e-07)
(0.0670825 -4.71767e-05 -6.43569e-07)
(0.0670918 -4.7489e-05 -6.43669e-07)
(0.0671013 -4.78055e-05 -6.43771e-07)
(0.0671109 -4.81261e-05 -6.43874e-07)
(0.0671206 -4.84509e-05 -6.43978e-07)
(0.0671305 -4.87801e-05 -6.44085e-07)
(0.0671405 -4.91137e-05 -6.44192e-07)
(0.0671506 -4.94518e-05 -6.44302e-07)
(0.067161 -4.97944e-05 -6.44413e-07)
(0.0671714 -5.01418e-05 -6.44525e-07)
(0.0671821 -5.04939e-05 -6.4464e-07)
(0.0671929 -5.0851e-05 -6.44756e-07)
(0.0672039 -5.12129e-05 -6.44873e-07)
(0.067215 -5.158e-05 -6.44993e-07)
(0.0672263 -5.19522e-05 -6.45115e-07)
(0.0672378 -5.23297e-05 -6.45238e-07)
(0.0672495 -5.27126e-05 -6.45364e-07)
(0.0672614 -5.3101e-05 -6.45491e-07)
(0.0672735 -5.34951e-05 -6.45621e-07)
(0.0673375 -5.35435e-05 -3.197e-09)
(0.0669916 -4.93113e-05 -6.42956e-07)
(0.0670001 -4.96577e-05 -6.4305e-07)
(0.0670086 -5.0009e-05 -6.43146e-07)
(0.0670173 -5.03653e-05 -6.43243e-07)
(0.067026 -5.07268e-05 -6.43341e-07)
(0.067035 -5.10934e-05 -6.43441e-07)
(0.067044 -5.14654e-05 -6.43542e-07)
(0.0670532 -5.18429e-05 -6.43645e-07)
(0.0670625 -5.22259e-05 -6.43749e-07)
(0.0670719 -5.26147e-05 -6.43855e-07)
(0.0670815 -5.30093e-05 -6.43962e-07)
(0.0670912 -5.34098e-05 -6.44071e-07)
(0.0671011 -5.38165e-05 -6.44182e-07)
(0.0671111 -5.42294e-05 -6.44294e-07)
(0.0671213 -5.46487e-05 -6.44408e-07)
(0.0671317 -5.50745e-05 -6.44524e-07)
(0.0671422 -5.55071e-05 -6.44642e-07)
(0.0671528 -5.59464e-05 -6.44761e-07)
(0.0671637 -5.63928e-05 -6.44882e-07)
(0.0671747 -5.68464e-05 -6.45006e-07)
(0.0671858 -5.73074e-05 -6.45131e-07)
(0.0672498 -5.73576e-05 -2.32175e-09)
(0.0669365 -4.92496e-05 -6.42561e-07)
(0.0669445 -4.95949e-05 -6.42652e-07)
(0.0669527 -4.99451e-05 -6.42745e-07)
(0.066961 -5.03003e-05 -6.42839e-07)
(0.0669693 -5.06605e-05 -6.42935e-07)
(0.0669778 -5.1026e-05 -6.43032e-07)
(0.0669865 -5.13968e-05 -6.4313e-07)
(0.0669952 -5.1773e-05 -6.4323e-07)
(0.0670041 -5.21547e-05 -6.43331e-07)
(0.0670131 -5.25421e-05 -6.43434e-07)
(0.0670223 -5.29353e-05 -6.43538e-07)
(0.0670315 -5.33345e-05 -6.43644e-07)
(0.067041 -5.37397e-05 -6.43751e-07)
(0.0670505 -5.41511e-05 -6.4386e-07)
(0.0670602 -5.45688e-05 -6.43971e-07)
(0.0670701 -5.49931e-05 -6.44083e-07)
(0.0670801 -5.5424e-05 -6.44197e-07)
(0.0670903 -5.58617e-05 -6.44313e-07)
(0.0671006 -5.63064e-05 -6.44431e-07)
(0.0671111 -5.67582e-05 -6.44551e-07)
(0.0671218 -5.72173e-05 -6.44672e-07)
(0.0671857 -5.72674e-05 -2.22264e-09)
(0.0668814 -4.92165e-05 -6.42166e-07)
(0.0668891 -4.95614e-05 -6.42255e-07)
(0.0668968 -4.99111e-05 -6.42345e-07)
(0.0669047 -5.02658e-05 -6.42436e-07)
(0.0669127 -5.06256e-05 -6.42529e-07)
(0.0669208 -5.09905e-05 -6.42623e-07)
(0.066929 -5.13608e-05 -6.42718e-07)
(0.0669373 -5.17365e-05 -6.42815e-07)
(0.0669458 -5.21177e-05 -6.42913e-07)
(0.0669543 -5.25046e-05 -6.43013e-07)
(0.066963 -5.28972e-05 -6.43114e-07)
(0.0669719 -5.32958e-05 -6.43216e-07)
(0.0669808 -5.37004e-05 -6.4332e-07)
(0.0669899 -5.41112e-05 -6.43426e-07)
(0.0669992 -5.45284e-05 -6.43533e-07)
(0.0670086 -5.4952e-05 -6.43642e-07)
(0.0670181 -5.53822e-05 -6.43753e-07)
(0.0670278 -5.58193e-05 -6.43865e-07)
(0.0670376 -5.62633e-05 -6.4398e-07)
(0.0670476 -5.67144e-05 -6.44096e-07)
(0.0670578 -5.71728e-05 -6.44213e-07)
(0.0671216 -5.72228e-05 -2.12221e-09)
(0.0668264 -4.91833e-05 -6.41772e-07)
(0.0668336 -4.95277e-05 -6.41858e-07)
(0.066841 -4.9877e-05 -6.41945e-07)
(0.0668485 -5.02312e-05 -6.42033e-07)
(0.066856 -5.05905e-05 -6.42123e-07)
(0.0668637 -5.09549e-05 -6.42214e-07)
(0.0668715 -5.13247e-05 -6.42306e-07)
(0.0668794 -5.16998e-05 -6.424e-07)
(0.0668874 -5.20805e-05 -6.42495e-07)
(0.0668956 -5.24668e-05 -6.42592e-07)
(0.0669039 -5.28589e-05 -6.42689e-07)
(0.0669122 -5.32569e-05 -6.42789e-07)
(0.0669208 -5.36609e-05 -6.4289e-07)
(0.0669294 -5.40711e-05 -6.42992e-07)
(0.0669382 -5.44877e-05 -6.43096e-07)
(0.0669471 -5.49107e-05 -6.43202e-07)
(0.0669562 -5.53403e-05 -6.43309e-07)
(0.0669653 -5.57767e-05 -6.43418e-07)
(0.0669747 -5.622e-05 -6.43528e-07)
(0.0669842 -5.66704e-05 -6.43641e-07)
(0.0669938 -5.71281e-05 -6.43755e-07)
(0.0670576 -5.7178e-05 -2.0217e-09)
(0.0667713 -4.91501e-05 -6.41377e-07)
(0.0667782 -4.94941e-05 -6.41461e-07)
(0.0667852 -4.98428e-05 -6.41545e-07)
(0.0667923 -5.01966e-05 -6.41631e-07)
(0.0667994 -5.05554e-05 -6.41717e-07)
(0.0668067 -5.09193e-05 -6.41805e-07)
(0.0668141 -5.12885e-05 -6.41895e-07)
(0.0668216 -5.16632e-05 -6.41985e-07)
(0.0668292 -5.20433e-05 -6.42077e-07)
(0.0668369 -5.24291e-05 -6.42171e-07)
(0.0668447 -5.28206e-05 -6.42266e-07)
(0.0668527 -5.3218e-05 -6.42362e-07)
(0.0668607 -5.36215e-05 -6.42459e-07)
(0.0668689 -5.40311e-05 -6.42558e-07)
(0.0668772 -5.4447e-05 -6.42659e-07)
(0.0668857 -5.48694e-05 -6.42761e-07)
(0.0668942 -5.52983e-05 -6.42865e-07)
(0.066903 -5.57341e-05 -6.4297e-07)
(0.0669118 -5.61767e-05 -6.43077e-07)
(0.0669208 -5.66264e-05 -6.43186e-07)
(0.0669299 -5.70834e-05 -6.43297e-07)
(0.0669937 -5.71331e-05 -1.92113e-09)
(0.0667163 -4.9117e-05 -6.40983e-07)
(0.0667228 -4.94604e-05 -6.41064e-07)
(0.0667294 -4.98087e-05 -6.41145e-07)
(0.0667361 -5.0162e-05 -6.41228e-07)
(0.0667429 -5.05203e-05 -6.41312e-07)
(0.0667497 -5.08837e-05 -6.41397e-07)
(0.0667567 -5.12524e-05 -6.41483e-07)
(0.0667638 -5.16265e-05 -6.41571e-07)
(0.066771 -5.20061e-05 -6.4166e-07)
(0.0667782 -5.23914e-05 -6.4175e-07)
(0.0667856 -5.27823e-05 -6.41842e-07)
(0.0667931 -5.31792e-05 -6.41935e-07)
(0.0668007 -5.3582e-05 -6.42029e-07)
(0.0668085 -5.3991e-05 -6.42125e-07)
(0.0668163 -5.44063e-05 -6.42222e-07)
(0.0668243 -5.48281e-05 -6.42321e-07)
(0.0668324 -5.52564e-05 -6.42421e-07)
(0.0668406 -5.56915e-05 -6.42523e-07)
(0.066849 -5.61335e-05 -6.42627e-07)
(0.0668574 -5.65825e-05 -6.42732e-07)
(0.0668661 -5.70388e-05 -6.42839e-07)
(0.0669298 -5.70884e-05 -1.8205e-09)
(0.0666614 -4.90838e-05 -6.40589e-07)
(0.0666675 -4.94268e-05 -6.40667e-07)
(0.0666737 -4.97747e-05 -6.40746e-07)
(0.06668 -5.01274e-05 -6.40826e-07)
(0.0666864 -5.04852e-05 -6.40907e-07)
(0.0666928 -5.08482e-05 -6.40989e-07)
(0.0666994 -5.12164e-05 -6.41072e-07)
(0.066706 -5.15899e-05 -6.41157e-07)
(0.0667128 -5.1969e-05 -6.41243e-07)
(0.0667196 -5.23537e-05 -6.4133e-07)
(0.0667266 -5.27441e-05 -6.41418e-07)
(0.0667336 -5.31403e-05 -6.41508e-07)
(0.0667408 -5.35426e-05 -6.41599e-07)
(0.0667481 -5.3951e-05 -6.41692e-07)
(0.0667555 -5.43657e-05 -6.41786e-07)
(0.066763 -5.47868e-05 -6.41881e-07)
(0.0667706 -5.52145e-05 -6.41978e-07)
(0.0667783 -5.56489e-05 -6.42076e-07)
(0.0667862 -5.60902e-05 -6.42176e-07)
(0.0667941 -5.65386e-05 -6.42278e-07)
(0.0668022 -5.69942e-05 -6.42381e-07)
(0.0668659 -5.70436e-05 -1.71989e-09)
(0.0666065 -4.90504e-05 -6.40195e-07)
(0.0666122 -4.9393e-05 -6.4027e-07)
(0.066618 -4.97403e-05 -6.40346e-07)
(0.0666239 -5.00926e-05 -6.40423e-07)
(0.0666299 -5.04499e-05 -6.40501e-07)
(0.0666359 -5.08123e-05 -6.40581e-07)
(0.0666421 -5.118e-05 -6.40661e-07)
(0.0666483 -5.15531e-05 -6.40743e-07)
(0.0666547 -5.19316e-05 -6.40826e-07)
(0.0666611 -5.23157e-05 -6.4091e-07)
(0.0666676 -5.27056e-05 -6.40995e-07)
(0.0666742 -5.31013e-05 -6.41081e-07)
(0.0666809 -5.3503e-05 -6.41169e-07)
(0.0666877 -5.39108e-05 -6.41258e-07)
(0.0666946 -5.43248e-05 -6.41349e-07)
(0.0667017 -5.47453e-05 -6.41441e-07)
(0.0667088 -5.51724e-05 -6.41534e-07)
(0.0667161 -5.56061e-05 -6.41629e-07)
(0.0667234 -5.60468e-05 -6.41726e-07)
(0.0667309 -5.64944e-05 -6.41824e-07)
(0.0667385 -5.69493e-05 -6.41923e-07)
(0.0668021 -5.69986e-05 -1.60855e-09)
(0.0665518 -4.90093e-05 -6.39784e-07)
(0.0665571 -4.93513e-05 -6.39856e-07)
(0.0665625 -4.96981e-05 -6.39929e-07)
(0.066568 -5.00499e-05 -6.40003e-07)
(0.0665736 -5.04066e-05 -6.40078e-07)
(0.0665792 -5.07685e-05 -6.40154e-07)
(0.066585 -5.11356e-05 -6.40232e-07)
(0.0665908 -5.15081e-05 -6.4031e-07)
(0.0665967 -5.1886e-05 -6.4039e-07)
(0.0666027 -5.22695e-05 -6.40471e-07)
(0.0666088 -5.26587e-05 -6.40553e-07)
(0.0666149 -5.30538e-05 -6.40636e-07)
(0.0666212 -5.34548e-05 -6.4072e-07)
(0.0666276 -5.3862e-05 -6.40806e-07)
(0.066634 -5.42753e-05 -6.40893e-07)
(0.0666406 -5.46951e-05 -6.40982e-07)
(0.0666472 -5.51215e-05 -6.41072e-07)
(0.066654 -5.55545e-05 -6.41163e-07)
(0.0666609 -5.59944e-05 -6.41255e-07)
(0.0666679 -5.64413e-05 -6.4135e-07)
(0.0666749 -5.68954e-05 -6.41445e-07)
(0.0667385 -5.6944e-05 -9.75075e-10)
(0.066497 -4.89681e-05 -6.39372e-07)
(0.066502 -4.93096e-05 -6.39441e-07)
(0.066507 -4.96559e-05 -6.39512e-07)
(0.0665121 -5.00071e-05 -6.39583e-07)
(0.0665173 -5.03633e-05 -6.39655e-07)
(0.0665226 -5.07246e-05 -6.39728e-07)
(0.0665279 -5.10912e-05 -6.39802e-07)
(0.0665333 -5.1463e-05 -6.39878e-07)
(0.0665388 -5.18404e-05 -6.39954e-07)
(0.0665443 -5.22233e-05 -6.40032e-07)
(0.06655 -5.26118e-05 -6.4011e-07)
(0.0665557 -5.30063e-05 -6.4019e-07)
(0.0665615 -5.34067e-05 -6.40271e-07)
(0.0665674 -5.38131e-05 -6.40354e-07)
(0.0665734 -5.42258e-05 -6.40437e-07)
(0.0665795 -5.46449e-05 -6.40522e-07)
(0.0665857 -5.50705e-05 -6.40608e-07)
(0.066592 -5.55028e-05 -6.40696e-07)
(0.0665984 -5.5942e-05 -6.40785e-07)
(0.0666049 -5.63881e-05 -6.40875e-07)
(0.0666114 -5.68414e-05 -6.40967e-07)
(0.0666749 -5.689e-05 -9.14502e-10)
(0.0664424 -4.89268e-05 -6.38961e-07)
(0.066447 -4.92678e-05 -6.39027e-07)
(0.0664516 -4.96136e-05 -6.39094e-07)
(0.0664563 -4.99642e-05 -6.39162e-07)
(0.0664611 -5.03199e-05 -6.39232e-07)
(0.0664659 -5.06806e-05 -6.39302e-07)
(0.0664709 -5.10466e-05 -6.39373e-07)
(0.0664759 -5.14179e-05 -6.39445e-07)
(0.0664809 -5.17946e-05 -6.39518e-07)
(0.066486 -5.21769e-05 -6.39593e-07)
(0.0664913 -5.25649e-05 -6.39668e-07)
(0.0664966 -5.29587e-05 -6.39745e-07)
(0.0665019 -5.33584e-05 -6.39822e-07)
(0.0665074 -5.37642e-05 -6.39901e-07)
(0.0665129 -5.41762e-05 -6.39981e-07)
(0.0665185 -5.45946e-05 -6.40063e-07)
(0.0665242 -5.50195e-05 -6.40145e-07)
(0.06653 -5.54511e-05 -6.40229e-07)
(0.0665359 -5.58895e-05 -6.40314e-07)
(0.0665419 -5.63348e-05 -6.40401e-07)
(0.066548 -5.67874e-05 -6.40489e-07)
(0.0666114 -5.6836e-05 -8.59964e-10)
(0.0663878 -4.88855e-05 -6.3855e-07)
(0.066392 -4.92259e-05 -6.38613e-07)
(0.0663962 -4.95712e-05 -6.38677e-07)
(0.0664005 -4.99213e-05 -6.38742e-07)
(0.0664049 -5.02764e-05 -6.38809e-07)
(0.0664094 -5.06366e-05 -6.38876e-07)
(0.0664139 -5.1002e-05 -6.38944e-07)
(0.0664184 -5.13726e-05 -6.39013e-07)
(0.0664231 -5.17488e-05 -6.39083e-07)
(0.0664278 -5.21304e-05 -6.39154e-07)
(0.0664326 -5.25178e-05 -6.39226e-07)
(0.0664374 -5.29109e-05 -6.39299e-07)
(0.0664423 -5.331e-05 -6.39374e-07)
(0.0664473 -5.37151e-05 -6.39449e-07)
(0.0664524 -5.41265e-05 -6.39526e-07)
(0.0664576 -5.45442e-05 -6.39604e-07)
(0.0664628 -5.49684e-05 -6.39683e-07)
(0.0664681 -5.53992e-05 -6.39763e-07)
(0.0664735 -5.58368e-05 -6.39844e-07)
(0.066479 -5.62815e-05 -6.39927e-07)
(0.0664846 -5.67332e-05 -6.40011e-07)
(0.066548 -5.67818e-05 -8.05541e-10)
(0.0663332 -4.8844e-05 -6.38138e-07)
(0.066337 -4.91839e-05 -6.38199e-07)
(0.0663409 -4.95287e-05 -6.3826e-07)
(0.0663448 -4.98782e-05 -6.38323e-07)
(0.0663488 -5.02328e-05 -6.38386e-07)
(0.0663528 -5.05924e-05 -6.3845e-07)
(0.0663569 -5.09572e-05 -6.38515e-07)
(0.0663611 -5.13273e-05 -6.38581e-07)
(0.0663653 -5.17028e-05 -6.38648e-07)
(0.0663696 -5.20839e-05 -6.38716e-07)
(0.0663739 -5.24706e-05 -6.38784e-07)
(0.0663783 -5.28631e-05 -6.38854e-07)
(0.0663828 -5.32615e-05 -6.38925e-07)
(0.0663874 -5.3666e-05 -6.38997e-07)
(0.066392 -5.40766e-05 -6.3907e-07)
(0.0663967 -5.44936e-05 -6.39145e-07)
(0.0664014 -5.49171e-05 -6.3922e-07)
(0.0664063 -5.53472e-05 -6.39297e-07)
(0.0664112 -5.57841e-05 -6.39375e-07)
(0.0664162 -5.6228e-05 -6.39454e-07)
(0.0664212 -5.66789e-05 -6.39534e-07)
(0.0664846 -5.67275e-05 -7.51236e-10)
(0.0662786 -4.88025e-05 -6.37728e-07)
(0.0662821 -4.91419e-05 -6.37785e-07)
(0.0662856 -4.94861e-05 -6.37844e-07)
(0.0662891 -4.98351e-05 -6.37903e-07)
(0.0662927 -5.01891e-05 -6.37963e-07)
(0.0662963 -5.05481e-05 -6.38024e-07)
(0.0663 -5.09124e-05 -6.38086e-07)
(0.0663038 -5.12819e-05 -6.38149e-07)
(0.0663076 -5.16568e-05 -6.38213e-07)
(0.0663114 -5.20372e-05 -6.38277e-07)
(0.0663153 -5.24233e-05 -6.38343e-07)
(0.0663193 -5.28152e-05 -6.38409e-07)
(0.0663233 -5.32129e-05 -6.38477e-07)
(0.0663274 -5.36167e-05 -6.38546e-07)
(0.0663316 -5.40267e-05 -6.38615e-07)
(0.0663358 -5.4443e-05 -6.38686e-07)
(0.0663401 -5.48658e-05 -6.38758e-07)
(0.0663445 -5.52951e-05 -6.38831e-07)
(0.0663489 -5.57313e-05 -6.38905e-07)
(0.0663534 -5.61744e-05 -6.3898e-07)
(0.0663579 -5.66245e-05 -6.39057e-07)
(0.0664212 -5.66731e-05 -6.97048e-10)
(0.0662241 -4.87608e-05 -6.37317e-07)
(0.0662272 -4.90997e-05 -6.37372e-07)
(0.0662303 -4.94434e-05 -6.37427e-07)
(0.0662334 -4.97919e-05 -6.37484e-07)
(0.0662366 -5.01453e-05 -6.37541e-07)
(0.0662399 -5.05038e-05 -6.37599e-07)
(0.0662432 -5.08674e-05 -6.37658e-07)
(0.0662465 -5.12363e-05 -6.37717e-07)
(0.0662499 -5.16107e-05 -6.37778e-07)
(0.0662533 -5.19905e-05 -6.37839e-07)
(0.0662568 -5.23759e-05 -6.37902e-07)
(0.0662603 -5.27672e-05 -6.37965e-07)
(0.0662639 -5.31643e-05 -6.38029e-07)
(0.0662676 -5.35674e-05 -6.38094e-07)
(0.0662713 -5.39767e-05 -6.3816e-07)
(0.066275 -5.43923e-05 -6.38228e-07)
(0.0662788 -5.48143e-05 -6.38296e-07)
(0.0662827 -5.52429e-05 -6.38365e-07)
(0.0662866 -5.56783e-05 -6.38436e-07)
(0.0662906 -5.61206e-05 -6.38507e-07)
(0.0662947 -5.657e-05 -6.3858e-07)
(0.0663579 -5.66186e-05 -6.42979e-10)
(0.0661696 -4.87191e-05 -6.36907e-07)
(0.0661723 -4.90575e-05 -6.36958e-07)
(0.0661751 -4.94006e-05 -6.37011e-07)
(0.0661778 -4.97485e-05 -6.37065e-07)
(0.0661806 -5.01014e-05 -6.37119e-07)
(0.0661835 -5.04593e-05 -6.37174e-07)
(0.0661863 -5.08224e-05 -6.37229e-07)
(0.0661893 -5.11907e-05 -6.37286e-07)
(0.0661922 -5.15644e-05 -6.37343e-07)
(0.0661952 -5.19436e-05 -6.37401e-07)
(0.0661983 -5.23285e-05 -6.37461e-07)
(0.0662014 -5.2719e-05 -6.3752e-07)
(0.0662045 -5.31155e-05 -6.37581e-07)
(0.0662077 -5.35179e-05 -6.37643e-07)
(0.066211 -5.39265e-05 -6.37706e-07)
(0.0662143 -5.43414e-05 -6.3777e-07)
(0.0662176 -5.47627e-05 -6.37834e-07)
(0.066221 -5.51906e-05 -6.379e-07)
(0.0662244 -5.56253e-05 -6.37967e-07)
(0.066228 -5.60668e-05 -6.38034e-07)
(0.0662315 -5.65154e-05 -6.38103e-07)
(0.0662947 -5.65639e-05 -5.89028e-10)
(0.0661152 -4.86773e-05 -6.36496e-07)
(0.0661175 -4.90152e-05 -6.36545e-07)
(0.0661199 -4.93577e-05 -6.36595e-07)
(0.0661222 -4.97051e-05 -6.36646e-07)
(0.0661246 -5.00574e-05 -6.36697e-07)
(0.0661271 -5.04148e-05 -6.36749e-07)
(0.0661296 -5.07773e-05 -6.36801e-07)
(0.0661321 -5.1145e-05 -6.36855e-07)
(0.0661346 -5.15181e-05 -6.36909e-07)
(0.0661372 -5.18967e-05 -6.36964e-07)
(0.0661398 -5.22809e-05 -6.3702e-07)
(0.0661425 -5.26708e-05 -6.37076e-07)
(0.0661452 -5.30666e-05 -6.37134e-07)
(0.0661479 -5.34684e-05 -6.37192e-07)
(0.0661507 -5.38763e-05 -6.37251e-07)
(0.0661535 -5.42905e-05 -6.37312e-07)
(0.0661564 -5.47111e-05 -6.37373e-07)
(0.0661593 -5.51382e-05 -6.37435e-07)
(0.0661623 -5.55721e-05 -6.37498e-07)
(0.0661653 -5.60129e-05 -6.37562e-07)
(0.0661684 -5.64607e-05 -6.37627e-07)
(0.0662315 -5.65092e-05 -5.35196e-10)
(0.0660608 -4.86354e-05 -6.36086e-07)
(0.0660628 -4.89727e-05 -6.36132e-07)
(0.0660647 -4.93148e-05 -6.36179e-07)
(0.0660667 -4.96616e-05 -6.36227e-07)
(0.0660687 -5.00134e-05 -6.36275e-07)
(0.0660708 -5.03702e-05 -6.36324e-07)
(0.0660728 -5.07321e-05 -6.36373e-07)
(0.0660749 -5.10992e-05 -6.36424e-07)
(0.0660771 -5.14717e-05 -6.36475e-07)
(0.0660792 -5.18497e-05 -6.36526e-07)
(0.0660814 -5.22332e-05 -6.36579e-07)
(0.0660836 -5.26225e-05 -6.36632e-07)
(0.0660859 -5.30176e-05 -6.36687e-07)
(0.0660882 -5.34187e-05 -6.36741e-07)
(0.0660905 -5.38259e-05 -6.36797e-07)
(0.0660929 -5.42394e-05 -6.36854e-07)
(0.0660953 -5.46593e-05 -6.36911e-07)
(0.0660977 -5.50857e-05 -6.3697e-07)
(0.0661002 -5.55188e-05 -6.37029e-07)
(0.0661027 -5.59588e-05 -6.3709e-07)
(0.0661053 -5.64059e-05 -6.37151e-07)
(0.0661684 -5.64543e-05 -4.81482e-10)
(0.0660065 -4.85935e-05 -6.35676e-07)
(0.066008 -4.89302e-05 -6.3572e-07)
(0.0660096 -4.92717e-05 -6.35764e-07)
(0.0660112 -4.9618e-05 -6.35808e-07)
(0.0660128 -4.99692e-05 -6.35853e-07)
(0.0660145 -5.03254e-05 -6.35899e-07)
(0.0660161 -5.06868e-05 -6.35946e-07)
(0.0660178 -5.10533e-05 -6.35993e-07)
(0.0660195 -5.14252e-05 -6.36041e-07)
(0.0660213 -5.18025e-05 -6.36089e-07)
(0.066023 -5.21855e-05 -6.36139e-07)
(0.0660248 -5.25741e-05 -6.36189e-07)
(0.0660267 -5.29685e-05 -6.36239e-07)
(0.0660285 -5.3369e-05 -6.36291e-07)
(0.0660304 -5.37755e-05 -6.36343e-07)
(0.0660323 -5.41883e-05 -6.36397e-07)
(0.0660342 -5.46074e-05 -6.3645e-07)
(0.0660362 -5.50331e-05 -6.36505e-07)
(0.0660382 -5.54655e-05 -6.36561e-07)
(0.0660402 -5.59047e-05 -6.36618e-07)
(0.0660423 -5.63509e-05 -6.36675e-07)
(0.0661053 -5.63994e-05 -4.27888e-10)
(0.0659522 -4.85514e-05 -6.35267e-07)
(0.0659533 -4.88877e-05 -6.35307e-07)
(0.0659545 -4.92286e-05 -6.35348e-07)
(0.0659557 -4.95744e-05 -6.3539e-07)
(0.065957 -4.9925e-05 -6.35432e-07)
(0.0659582 -5.02806e-05 -6.35475e-07)
(0.0659595 -5.06414e-05 -6.35518e-07)
(0.0659608 -5.10073e-05 -6.35562e-07)
(0.0659621 -5.13786e-05 -6.35607e-07)
(0.0659634 -5.17553e-05 -6.35652e-07)
(0.0659647 -5.21376e-05 -6.35698e-07)
(0.0659661 -5.25256e-05 -6.35745e-07)
(0.0659675 -5.29194e-05 -6.35793e-07)
(0.0659689 -5.33191e-05 -6.35841e-07)
(0.0659703 -5.37249e-05 -6.3589e-07)
(0.0659717 -5.4137e-05 -6.35939e-07)
(0.0659732 -5.45554e-05 -6.3599e-07)
(0.0659747 -5.49804e-05 -6.36041e-07)
(0.0659762 -5.5412e-05 -6.36093e-07)
(0.0659777 -5.58504e-05 -6.36146e-07)
(0.0659793 -5.62959e-05 -6.36199e-07)
(0.0660422 -5.63443e-05 -3.74413e-10)
(0.0658979 -4.85093e-05 -6.34857e-07)
(0.0658987 -4.8845e-05 -6.34895e-07)
(0.0658995 -4.91854e-05 -6.34933e-07)
(0.0659003 -4.95306e-05 -6.34972e-07)
(0.0659012 -4.98807e-05 -6.35011e-07)
(0.065902 -5.02357e-05 -6.35051e-07)
(0.0659029 -5.05959e-05 -6.35091e-07)
(0.0659037 -5.09612e-05 -6.35132e-07)
(0.0659046 -5.13319e-05 -6.35174e-07)
(0.0659055 -5.1708e-05 -6.35216e-07)
(0.0659064 -5.20897e-05 -6.35259e-07)
(0.0659074 -5.2477e-05 -6.35302e-07)
(0.0659083 -5.28701e-05 -6.35346e-07)
(0.0659093 -5.32692e-05 -6.35391e-07)
(0.0659102 -5.36743e-05 -6.35436e-07)
(0.0659112 -5.40857e-05 -6.35482e-07)
(0.0659122 -5.45034e-05 -6.35529e-07)
(0.0659132 -5.49276e-05 -6.35577e-07)
(0.0659143 -5.53584e-05 -6.35625e-07)
(0.0659153 -5.57961e-05 -6.35674e-07)
(0.0659164 -5.62407e-05 -6.35724e-07)
(0.0659793 -5.62891e-05 -3.21065e-10)
(0.0658437 -4.84676e-05 -6.34448e-07)
(0.0658441 -4.88028e-05 -6.34483e-07)
(0.0658445 -4.91427e-05 -6.34518e-07)
(0.065845 -4.94873e-05 -6.34554e-07)
(0.0658454 -4.98368e-05 -6.3459e-07)
(0.0658459 -5.01913e-05 -6.34627e-07)
(0.0658463 -5.05509e-05 -6.34664e-07)
(0.0658468 -5.09156e-05 -6.34702e-07)
(0.0658472 -5.12857e-05 -6.3474e-07)
(0.0658477 -5.16612e-05 -6.34779e-07)
(0.0658482 -5.20422e-05 -6.34819e-07)
(0.0658487 -5.24289e-05 -6.34859e-07)
(0.0658492 -5.28214e-05 -6.349e-07)
(0.0658497 -5.32198e-05 -6.34941e-07)
(0.0658502 -5.36242e-05 -6.34983e-07)
(0.0658508 -5.40348e-05 -6.35026e-07)
(0.0658513 -5.44518e-05 -6.35069e-07)
(0.0658518 -5.48753e-05 -6.35113e-07)
(0.0658524 -5.53054e-05 -6.35158e-07)
(0.0658529 -5.57423e-05 -6.35203e-07)
(0.0658535 -5.61861e-05 -6.35249e-07)
(0.0659164 -5.62345e-05 -2.56054e-10)
(0.0657874 -4.83005e-05 -6.34316e-07)
(0.0657874 -4.86343e-05 -6.3435e-07)
(0.0657875 -4.89728e-05 -6.34384e-07)
(0.0657875 -4.9316e-05 -6.34419e-07)
(0.0657875 -4.96641e-05 -6.34455e-07)
(0.0657876 -5.00171e-05 -6.3449e-07)
(0.0657876 -5.03752e-05 -6.34527e-07)
(0.0657876 -5.07384e-05 -6.34564e-07)
(0.0657877 -5.11069e-05 -6.34601e-07)
(0.0657877 -5.14808e-05 -6.34639e-07)
(0.0657878 -5.18603e-05 -6.34678e-07)
(0.0657878 -5.22453e-05 -6.34717e-07)
(0.0657879 -5.26361e-05 -6.34756e-07)
(0.0657879 -5.30329e-05 -6.34797e-07)
(0.065788 -5.34356e-05 -6.34838e-07)
(0.065788 -5.38445e-05 -6.34879e-07)
(0.0657881 -5.42597e-05 -6.34921e-07)
(0.0657881 -5.46814e-05 -6.34964e-07)
(0.0657882 -5.51096e-05 -6.35008e-07)
(0.0657882 -5.55446e-05 -6.35052e-07)
(0.0657883 -5.59866e-05 -6.35097e-07)
(0.0658511 -5.60446e-05 -8.4043e-09)
)
;

boundaryField
{
    inlet
    {
        type            calculated;
        value           uniform (0.0741049 0 0);
    }
    outlet2
    {
        type            calculated;
        value           uniform (0.0741049 0 0);
    }
    outlet1
    {
        type            calculated;
        value           uniform (0.0741049 0 0);
    }
    wall
    {
        type            calculated;
        value           uniform (0.0741049 0 0);
    }
    symmetryBottom
    {
        type            symmetry;
    }
    symmetryZ0
    {
        type            symmetry;
    }
    symmetryZ05
    {
        type            symmetry;
    }
}


// ************************************************************************* //
