/*--------------------------------*- C++ -*----------------------------------*\
| =========                 |                                                 |
| \\      /  F ield         | OpenFOAM: The Open Source CFD Toolbox           |
|  \\    /   O peration     | Version:  2412                                  |
|   \\  /    A nd           | Website:  www.openfoam.com                      |
|    \\/     M anipulation  |                                                 |
\*---------------------------------------------------------------------------*/
FoamFile
{
    version     2.0;
    format      ascii;
    arch        "LSB;label=32;scalar=64";
    class       volVectorField;
    location    "9.13819e-07";
    object      rhoU;
}
// * * * * * * * * * * * * * * * * * * * * * * * * * * * * * * * * * * * * * //

dimensions      [0 0 0 0 0 0 0];

internalField   nonuniform List<vector> 
625
(
(0.0751001 -2.4822e-07 -5.73177e-07)
(0.0640222 -3.96128e-07 -6.15275e-07)
(0.0640222 -3.96834e-07 7.09998e-09)
(0.0751015 -5.23076e-05 -5.73156e-07)
(0.0640235 -4.70847e-05 -6.15257e-07)
(0.0640235 -4.70855e-05 -2.49936e-10)
(0.0751001 -5.21646e-05 -5.73167e-07)
(0.0640222 -4.69527e-05 -6.15269e-07)
(0.0640222 -4.69534e-05 -1.68246e-10)
(0.0751001 -5.21651e-05 -5.73166e-07)
(0.0640222 -4.69531e-05 -6.15269e-07)
(0.0640222 -4.69538e-05 -1.68486e-10)
(0.0751001 -5.21651e-05 -5.73166e-07)
(0.0640222 -4.69531e-05 -6.15269e-07)
(0.0640222 -4.69538e-05 -1.68485e-10)
(0.0751001 -5.21651e-05 -5.73166e-07)
(0.0640222 -4.69531e-05 -6.15269e-07)
(0.0640222 -4.69538e-05 -1.68485e-10)
(0.0751001 -5.21651e-05 -5.73166e-07)
(0.0640222 -4.69531e-05 -6.15269e-07)
(0.0640222 -4.69538e-05 -1.68486e-10)
(0.0751001 -5.21651e-05 -5.73166e-07)
(0.0640222 -4.69531e-05 -6.15269e-07)
(0.0640222 -4.69538e-05 -1.68485e-10)
(0.0751001 -5.21651e-05 -5.73166e-07)
(0.0640222 -4.69531e-05 -6.15269e-07)
(0.0640222 -4.69538e-05 -1.68486e-10)
(0.0751001 -5.21651e-05 -5.73166e-07)
(0.0640222 -4.69531e-05 -6.15269e-07)
(0.0640222 -4.69538e-05 -1.68486e-10)
(0.0751001 -5.21651e-05 -5.73166e-07)
(0.0640222 -4.69531e-05 -6.15269e-07)
(0.0640222 -4.69538e-05 -1.68486e-10)
(0.0751001 -5.21651e-05 -5.73166e-07)
(0.0640222 -4.69531e-05 -6.15269e-07)
(0.0640222 -4.69538e-05 -1.68486e-10)
(0.0751001 -5.21651e-05 -5.73166e-07)
(0.0640222 -4.69531e-05 -6.15269e-07)
(0.0640222 -4.69538e-05 -1.68486e-10)
(0.0751001 -5.21651e-05 -5.73166e-07)
(0.0640222 -4.69531e-05 -6.15269e-07)
(0.0640222 -4.69538e-05 -1.68486e-10)
(0.0751001 -5.21651e-05 -5.73166e-07)
(0.0640222 -4.69531e-05 -6.15269e-07)
(0.0640222 -4.69538e-05 -1.68485e-10)
(0.0751001 -5.21651e-05 -5.73166e-07)
(0.0640222 -4.69531e-05 -6.15269e-07)
(0.0640222 -4.69538e-05 -1.68485e-10)
(0.0751001 -5.21651e-05 -5.73166e-07)
(0.0640222 -4.69531e-05 -6.15269e-07)
(0.0640222 -4.69538e-05 -1.68485e-10)
(0.0751001 -5.21651e-05 -5.73166e-07)
(0.0640222 -4.69531e-05 -6.15269e-07)
(0.0640222 -4.69538e-05 -1.68486e-10)
(0.0751001 -5.21651e-05 -5.73166e-07)
(0.0640222 -4.69531e-05 -6.15269e-07)
(0.0640222 -4.69538e-05 -1.68486e-10)
(0.0751001 -5.21651e-05 -5.73166e-07)
(0.0640222 -4.69531e-05 -6.15269e-07)
(0.0640222 -4.69538e-05 -1.68486e-10)
(0.0751001 -5.21651e-05 -5.73166e-07)
(0.0640222 -4.69531e-05 -6.15269e-07)
(0.0640222 -4.69538e-05 -1.68485e-10)
(0.0751001 -5.21651e-05 -5.73166e-07)
(0.0640222 -4.69531e-05 -6.15269e-07)
(0.0640222 -4.69538e-05 -1.68487e-10)
(0.0751001 -5.21651e-05 -5.73166e-07)
(0.0640222 -4.69531e-05 -6.15269e-07)
(0.0640222 -4.69538e-05 -1.65638e-10)
(0.0751001 -5.21651e-05 -5.73167e-07)
(0.0640222 -4.69537e-05 -6.15269e-07)
(0.0640223 -4.69576e-05 -4.16385e-09)
(0.0751006 -5.21945e-05 -5.73422e-07)
(0.0640199 -4.68144e-05 -6.15534e-07)
(0.0640199 -4.68183e-05 -6.18163e-07)
(0.0656142 5.12267e-06 -6.83454e-07)
(0.0656132 5.2021e-06 -6.83859e-07)
(0.0656122 5.28335e-06 -6.8427e-07)
(0.0656112 5.36648e-06 -6.84687e-07)
(0.0656101 5.45156e-06 -6.8511e-07)
(0.0656091 5.53863e-06 -6.8554e-07)
(0.065608 5.62777e-06 -6.85976e-07)
(0.0656069 5.71904e-06 -6.8642e-07)
(0.0656058 5.81251e-06 -6.8687e-07)
(0.0656047 5.90825e-06 -6.87328e-07)
(0.0656036 6.00632e-06 -6.87793e-07)
(0.0656025 6.10682e-06 -6.88266e-07)
(0.0656014 6.20981e-06 -6.88746e-07)
(0.0656002 6.31539e-06 -6.89234e-07)
(0.065599 6.42363e-06 -6.8973e-07)
(0.0655978 6.53463e-06 -6.90235e-07)
(0.0655966 6.64847e-06 -6.90748e-07)
(0.0655954 6.76527e-06 -6.91269e-07)
(0.0655942 6.88512e-06 -6.918e-07)
(0.065593 7.00813e-06 -6.9234e-07)
(0.0655917 7.1344e-06 -6.92889e-07)
(0.0656536 7.13451e-06 -1.08563e-08)
(0.0670642 -4.65639e-05 -6.40429e-07)
(0.0670732 -4.68683e-05 -6.40506e-07)
(0.0670824 -4.71766e-05 -6.40584e-07)
(0.0670917 -4.7489e-05 -6.40663e-07)
(0.0671012 -4.78054e-05 -6.40743e-07)
(0.0671108 -4.8126e-05 -6.40824e-07)
(0.0671205 -4.84508e-05 -6.40907e-07)
(0.0671304 -4.878e-05 -6.40991e-07)
(0.0671404 -4.91136e-05 -6.41075e-07)
(0.0671505 -4.94517e-05 -6.41162e-07)
(0.0671609 -4.97944e-05 -6.41249e-07)
(0.0671713 -5.01417e-05 -6.41338e-07)
(0.067182 -5.04939e-05 -6.41428e-07)
(0.0671928 -5.08509e-05 -6.41519e-07)
(0.0672038 -5.12129e-05 -6.41612e-07)
(0.0672149 -5.15799e-05 -6.41706e-07)
(0.0672262 -5.19521e-05 -6.41802e-07)
(0.0672377 -5.23296e-05 -6.41899e-07)
(0.0672494 -5.27125e-05 -6.41998e-07)
(0.0672613 -5.31009e-05 -6.42099e-07)
(0.0672734 -5.3495e-05 -6.42201e-07)
(0.0673368 -5.35429e-05 -3.19699e-09)
(0.0669916 -4.93112e-05 -6.40014e-07)
(0.067 -4.96577e-05 -6.40088e-07)
(0.0670085 -5.0009e-05 -6.40163e-07)
(0.0670172 -5.03653e-05 -6.40238e-07)
(0.067026 -5.07267e-05 -6.40315e-07)
(0.0670349 -5.10934e-05 -6.40393e-07)
(0.0670439 -5.14654e-05 -6.40472e-07)
(0.0670531 -5.18428e-05 -6.40553e-07)
(0.0670624 -5.22259e-05 -6.40634e-07)
(0.0670718 -5.26146e-05 -6.40717e-07)
(0.0670814 -5.30092e-05 -6.40801e-07)
(0.0670911 -5.34098e-05 -6.40886e-07)
(0.067101 -5.38164e-05 -6.40972e-07)
(0.067111 -5.42293e-05 -6.4106e-07)
(0.0671212 -5.46486e-05 -6.41149e-07)
(0.0671316 -5.50745e-05 -6.41239e-07)
(0.067142 -5.5507e-05 -6.41331e-07)
(0.0671527 -5.59464e-05 -6.41425e-07)
(0.0671635 -5.63927e-05 -6.41519e-07)
(0.0671745 -5.68463e-05 -6.41616e-07)
(0.0671857 -5.73073e-05 -6.41713e-07)
(0.0672491 -5.73571e-05 -2.32173e-09)
(0.0669364 -4.92495e-05 -6.39622e-07)
(0.0669445 -4.95949e-05 -6.39693e-07)
(0.0669526 -4.99451e-05 -6.39765e-07)
(0.0669609 -5.03002e-05 -6.39838e-07)
(0.0669693 -5.06605e-05 -6.39912e-07)
(0.0669778 -5.10259e-05 -6.39987e-07)
(0.0669864 -5.13967e-05 -6.40063e-07)
(0.0669951 -5.17729e-05 -6.4014e-07)
(0.067004 -5.21546e-05 -6.40218e-07)
(0.067013 -5.25421e-05 -6.40298e-07)
(0.0670222 -5.29353e-05 -6.40379e-07)
(0.0670314 -5.33344e-05 -6.40461e-07)
(0.0670409 -5.37396e-05 -6.40544e-07)
(0.0670504 -5.4151e-05 -6.40628e-07)
(0.0670601 -5.45688e-05 -6.40714e-07)
(0.06707 -5.4993e-05 -6.40801e-07)
(0.06708 -5.54239e-05 -6.4089e-07)
(0.0670902 -5.58616e-05 -6.40979e-07)
(0.0671005 -5.63063e-05 -6.41071e-07)
(0.067111 -5.67581e-05 -6.41163e-07)
(0.0671217 -5.72172e-05 -6.41258e-07)
(0.067185 -5.72669e-05 -2.22262e-09)
(0.0668813 -4.92165e-05 -6.39229e-07)
(0.066889 -4.95613e-05 -6.39297e-07)
(0.0668967 -4.99111e-05 -6.39366e-07)
(0.0669046 -5.02658e-05 -6.39437e-07)
(0.0669126 -5.06255e-05 -6.39508e-07)
(0.0669207 -5.09905e-05 -6.3958e-07)
(0.0669289 -5.13607e-05 -6.39653e-07)
(0.0669372 -5.17364e-05 -6.39727e-07)
(0.0669457 -5.21176e-05 -6.39803e-07)
(0.0669542 -5.25045e-05 -6.39879e-07)
(0.0669629 -5.28971e-05 -6.39957e-07)
(0.0669718 -5.32957e-05 -6.40036e-07)
(0.0669807 -5.37003e-05 -6.40116e-07)
(0.0669898 -5.41111e-05 -6.40197e-07)
(0.0669991 -5.45283e-05 -6.40279e-07)
(0.0670085 -5.49519e-05 -6.40363e-07)
(0.067018 -5.53822e-05 -6.40448e-07)
(0.0670277 -5.58192e-05 -6.40534e-07)
(0.0670375 -5.62632e-05 -6.40622e-07)
(0.0670475 -5.67143e-05 -6.40711e-07)
(0.0670577 -5.71727e-05 -6.40802e-07)
(0.0671209 -5.72223e-05 -2.1222e-09)
(0.0668263 -4.91833e-05 -6.38837e-07)
(0.0668335 -4.95277e-05 -6.38902e-07)
(0.0668409 -4.98769e-05 -6.38968e-07)
(0.0668484 -5.02311e-05 -6.39036e-07)
(0.0668559 -5.05904e-05 -6.39104e-07)
(0.0668636 -5.09549e-05 -6.39173e-07)
(0.0668714 -5.13246e-05 -6.39244e-07)
(0.0668793 -5.16997e-05 -6.39315e-07)
(0.0668874 -5.20804e-05 -6.39387e-07)
(0.0668955 -5.24667e-05 -6.39461e-07)
(0.0669038 -5.28588e-05 -6.39535e-07)
(0.0669121 -5.32568e-05 -6.39611e-07)
(0.0669207 -5.36608e-05 -6.39688e-07)
(0.0669293 -5.40711e-05 -6.39765e-07)
(0.0669381 -5.44876e-05 -6.39845e-07)
(0.066947 -5.49106e-05 -6.39925e-07)
(0.066956 -5.53402e-05 -6.40007e-07)
(0.0669652 -5.57766e-05 -6.40089e-07)
(0.0669746 -5.62199e-05 -6.40174e-07)
(0.0669841 -5.66703e-05 -6.40259e-07)
(0.0669937 -5.7128e-05 -6.40346e-07)
(0.0670569 -5.71774e-05 -2.02168e-09)
(0.0667712 -4.91501e-05 -6.38444e-07)
(0.0667781 -4.9494e-05 -6.38507e-07)
(0.0667851 -4.98428e-05 -6.38571e-07)
(0.0667922 -5.01965e-05 -6.38635e-07)
(0.0667993 -5.05553e-05 -6.38701e-07)
(0.0668066 -5.09193e-05 -6.38767e-07)
(0.066814 -5.12885e-05 -6.38834e-07)
(0.0668215 -5.16631e-05 -6.38903e-07)
(0.0668291 -5.20432e-05 -6.38972e-07)
(0.0668368 -5.2429e-05 -6.39042e-07)
(0.0668446 -5.28205e-05 -6.39114e-07)
(0.0668526 -5.32179e-05 -6.39186e-07)
(0.0668606 -5.36214e-05 -6.3926e-07)
(0.0668688 -5.4031e-05 -6.39334e-07)
(0.0668771 -5.44469e-05 -6.3941e-07)
(0.0668856 -5.48693e-05 -6.39487e-07)
(0.0668941 -5.52982e-05 -6.39565e-07)
(0.0669028 -5.5734e-05 -6.39645e-07)
(0.0669117 -5.61766e-05 -6.39725e-07)
(0.0669207 -5.66264e-05 -6.39807e-07)
(0.0669298 -5.70834e-05 -6.39891e-07)
(0.066993 -5.71326e-05 -1.92112e-09)
(0.0667163 -4.91169e-05 -6.38052e-07)
(0.0667228 -4.94604e-05 -6.38112e-07)
(0.0667293 -4.98087e-05 -6.38173e-07)
(0.066736 -5.01619e-05 -6.38235e-07)
(0.0667428 -5.05202e-05 -6.38297e-07)
(0.0667497 -5.08837e-05 -6.38361e-07)
(0.0667566 -5.12524e-05 -6.38425e-07)
(0.0667637 -5.16265e-05 -6.38491e-07)
(0.0667709 -5.20061e-05 -6.38557e-07)
(0.0667781 -5.23913e-05 -6.38624e-07)
(0.0667855 -5.27823e-05 -6.38692e-07)
(0.066793 -5.31791e-05 -6.38762e-07)
(0.0668006 -5.3582e-05 -6.38832e-07)
(0.0668084 -5.3991e-05 -6.38903e-07)
(0.0668162 -5.44063e-05 -6.38976e-07)
(0.0668242 -5.4828e-05 -6.3905e-07)
(0.0668323 -5.52563e-05 -6.39124e-07)
(0.0668405 -5.56914e-05 -6.392e-07)
(0.0668488 -5.61334e-05 -6.39277e-07)
(0.0668573 -5.65824e-05 -6.39356e-07)
(0.0668659 -5.70387e-05 -6.39435e-07)
(0.0669291 -5.70878e-05 -1.82049e-09)
(0.0666613 -4.90838e-05 -6.37661e-07)
(0.0666674 -4.94268e-05 -6.37718e-07)
(0.0666736 -4.97746e-05 -6.37776e-07)
(0.0666799 -5.01274e-05 -6.37835e-07)
(0.0666863 -5.04852e-05 -6.37894e-07)
(0.0666927 -5.08481e-05 -6.37955e-07)
(0.0666993 -5.12163e-05 -6.38017e-07)
(0.0667059 -5.15899e-05 -6.38079e-07)
(0.0667127 -5.19689e-05 -6.38142e-07)
(0.0667195 -5.23536e-05 -6.38206e-07)
(0.0667265 -5.2744e-05 -6.38271e-07)
(0.0667335 -5.31403e-05 -6.38338e-07)
(0.0667407 -5.35425e-05 -6.38405e-07)
(0.066748 -5.39509e-05 -6.38473e-07)
(0.0667554 -5.43656e-05 -6.38542e-07)
(0.0667629 -5.47867e-05 -6.38612e-07)
(0.0667705 -5.52144e-05 -6.38684e-07)
(0.0667782 -5.56488e-05 -6.38756e-07)
(0.066786 -5.60901e-05 -6.3883e-07)
(0.066794 -5.65385e-05 -6.38904e-07)
(0.0668021 -5.69941e-05 -6.3898e-07)
(0.0668652 -5.70431e-05 -1.71988e-09)
(0.0666064 -4.90504e-05 -6.37269e-07)
(0.0666121 -4.93929e-05 -6.37323e-07)
(0.0666179 -4.97403e-05 -6.37379e-07)
(0.0666238 -5.00925e-05 -6.37435e-07)
(0.0666298 -5.04498e-05 -6.37491e-07)
(0.0666359 -5.08123e-05 -6.37549e-07)
(0.066642 -5.118e-05 -6.37608e-07)
(0.0666482 -5.1553e-05 -6.37667e-07)
(0.0666546 -5.19315e-05 -6.37727e-07)
(0.066661 -5.23157e-05 -6.37788e-07)
(0.0666675 -5.27055e-05 -6.3785e-07)
(0.0666741 -5.31012e-05 -6.37913e-07)
(0.0666808 -5.35029e-05 -6.37977e-07)
(0.0666876 -5.39107e-05 -6.38042e-07)
(0.0666945 -5.43248e-05 -6.38108e-07)
(0.0667016 -5.47452e-05 -6.38175e-07)
(0.0667087 -5.51723e-05 -6.38243e-07)
(0.0667159 -5.5606e-05 -6.38312e-07)
(0.0667233 -5.60467e-05 -6.38382e-07)
(0.0667308 -5.64943e-05 -6.38453e-07)
(0.0667384 -5.69492e-05 -6.38525e-07)
(0.0668014 -5.6998e-05 -1.60854e-09)
(0.0665517 -4.90092e-05 -6.36859e-07)
(0.066557 -4.93513e-05 -6.36911e-07)
(0.0665624 -4.96981e-05 -6.36964e-07)
(0.0665679 -5.00498e-05 -6.37017e-07)
(0.0665735 -5.04066e-05 -6.37071e-07)
(0.0665792 -5.07685e-05 -6.37125e-07)
(0.0665849 -5.11356e-05 -6.37181e-07)
(0.0665907 -5.1508e-05 -6.37237e-07)
(0.0665966 -5.18859e-05 -6.37294e-07)
(0.0666026 -5.22694e-05 -6.37352e-07)
(0.0666087 -5.26587e-05 -6.37411e-07)
(0.0666148 -5.30537e-05 -6.3747e-07)
(0.0666211 -5.34547e-05 -6.37531e-07)
(0.0666275 -5.38619e-05 -6.37592e-07)
(0.0666339 -5.42753e-05 -6.37655e-07)
(0.0666405 -5.46951e-05 -6.37718e-07)
(0.0666471 -5.51214e-05 -6.37783e-07)
(0.0666539 -5.55544e-05 -6.37848e-07)
(0.0666608 -5.59943e-05 -6.37914e-07)
(0.0666677 -5.64412e-05 -6.37982e-07)
(0.0666748 -5.68953e-05 -6.3805e-07)
(0.0667378 -5.69435e-05 -9.75066e-10)
(0.066497 -4.89681e-05 -6.3645e-07)
(0.0665019 -4.93096e-05 -6.36499e-07)
(0.066507 -4.96559e-05 -6.36548e-07)
(0.0665121 -5.00071e-05 -6.36598e-07)
(0.0665172 -5.03633e-05 -6.36649e-07)
(0.0665225 -5.07246e-05 -6.36701e-07)
(0.0665278 -5.10911e-05 -6.36753e-07)
(0.0665332 -5.1463e-05 -6.36807e-07)
(0.0665387 -5.18403e-05 -6.36861e-07)
(0.0665443 -5.22232e-05 -6.36915e-07)
(0.0665499 -5.26118e-05 -6.36971e-07)
(0.0665556 -5.30062e-05 -6.37027e-07)
(0.0665614 -5.34066e-05 -6.37084e-07)
(0.0665673 -5.38131e-05 -6.37142e-07)
(0.0665733 -5.42258e-05 -6.37201e-07)
(0.0665794 -5.46448e-05 -6.37261e-07)
(0.0665856 -5.50705e-05 -6.37322e-07)
(0.0665919 -5.55028e-05 -6.37384e-07)
(0.0665983 -5.59419e-05 -6.37447e-07)
(0.0666047 -5.6388e-05 -6.3751e-07)
(0.0666113 -5.68414e-05 -6.37575e-07)
(0.0666742 -5.68895e-05 -9.14493e-10)
(0.0664423 -4.89268e-05 -6.36041e-07)
(0.0664469 -4.92678e-05 -6.36087e-07)
(0.0664515 -4.96135e-05 -6.36133e-07)
(0.0664562 -4.99642e-05 -6.36181e-07)
(0.066461 -5.03198e-05 -6.36228e-07)
(0.0664659 -5.06806e-05 -6.36277e-07)
(0.0664708 -5.10465e-05 -6.36326e-07)
(0.0664758 -5.14178e-05 -6.36376e-07)
(0.0664808 -5.17945e-05 -6.36427e-07)
(0.066486 -5.21768e-05 -6.36479e-07)
(0.0664912 -5.25648e-05 -6.36531e-07)
(0.0664965 -5.29586e-05 -6.36584e-07)
(0.0665018 -5.33583e-05 -6.36638e-07)
(0.0665073 -5.37641e-05 -6.36693e-07)
(0.0665128 -5.41761e-05 -6.36748e-07)
(0.0665184 -5.45945e-05 -6.36805e-07)
(0.0665241 -5.50194e-05 -6.36862e-07)
(0.0665299 -5.5451e-05 -6.3692e-07)
(0.0665358 -5.58894e-05 -6.36979e-07)
(0.0665418 -5.63348e-05 -6.37039e-07)
(0.0665479 -5.67873e-05 -6.371e-07)
(0.0666107 -5.68355e-05 -8.59955e-10)
(0.0663877 -4.88854e-05 -6.35632e-07)
(0.0663919 -4.92259e-05 -6.35675e-07)
(0.0663961 -4.95711e-05 -6.35718e-07)
(0.0664005 -4.99212e-05 -6.35763e-07)
(0.0664048 -5.02763e-05 -6.35808e-07)
(0.0664093 -5.06365e-05 -6.35853e-07)
(0.0664138 -5.10019e-05 -6.359e-07)
(0.0664184 -5.13726e-05 -6.35947e-07)
(0.066423 -5.17487e-05 -6.35994e-07)
(0.0664277 -5.21304e-05 -6.36043e-07)
(0.0664325 -5.25177e-05 -6.36092e-07)
(0.0664373 -5.29109e-05 -6.36141e-07)
(0.0664422 -5.33099e-05 -6.36192e-07)
(0.0664472 -5.37151e-05 -6.36243e-07)
(0.0664523 -5.41264e-05 -6.36295e-07)
(0.0664575 -5.45441e-05 -6.36348e-07)
(0.0664627 -5.49683e-05 -6.36402e-07)
(0.066468 -5.53991e-05 -6.36456e-07)
(0.0664734 -5.58368e-05 -6.36512e-07)
(0.0664789 -5.62814e-05 -6.36568e-07)
(0.0664845 -5.67331e-05 -6.36625e-07)
(0.0665473 -5.67813e-05 -8.05533e-10)
(0.0663331 -4.8844e-05 -6.35223e-07)
(0.0663369 -4.91839e-05 -6.35263e-07)
(0.0663408 -4.95286e-05 -6.35304e-07)
(0.0663447 -4.98782e-05 -6.35345e-07)
(0.0663487 -5.02327e-05 -6.35387e-07)
(0.0663527 -5.05923e-05 -6.3543e-07)
(0.0663568 -5.09571e-05 -6.35473e-07)
(0.066361 -5.13272e-05 -6.35517e-07)
(0.0663652 -5.17028e-05 -6.35561e-07)
(0.0663695 -5.20838e-05 -6.35607e-07)
(0.0663738 -5.24705e-05 -6.35652e-07)
(0.0663782 -5.2863e-05 -6.35699e-07)
(0.0663827 -5.32615e-05 -6.35746e-07)
(0.0663873 -5.36659e-05 -6.35794e-07)
(0.0663919 -5.40766e-05 -6.35843e-07)
(0.0663966 -5.44936e-05 -6.35892e-07)
(0.0664013 -5.4917e-05 -6.35942e-07)
(0.0664062 -5.53471e-05 -6.35993e-07)
(0.0664111 -5.5784e-05 -6.36045e-07)
(0.0664161 -5.62279e-05 -6.36097e-07)
(0.0664211 -5.66788e-05 -6.36151e-07)
(0.0664839 -5.6727e-05 -7.51228e-10)
(0.0662785 -4.88024e-05 -6.34814e-07)
(0.066282 -4.91418e-05 -6.34851e-07)
(0.0662855 -4.9486e-05 -6.34889e-07)
(0.066289 -4.9835e-05 -6.34928e-07)
(0.0662926 -5.0189e-05 -6.34967e-07)
(0.0662962 -5.05481e-05 -6.35006e-07)
(0.0662999 -5.09123e-05 -6.35047e-07)
(0.0663037 -5.12818e-05 -6.35087e-07)
(0.0663075 -5.16567e-05 -6.35129e-07)
(0.0663113 -5.20372e-05 -6.35171e-07)
(0.0663152 -5.24233e-05 -6.35213e-07)
(0.0663192 -5.28151e-05 -6.35256e-07)
(0.0663232 -5.32129e-05 -6.353e-07)
(0.0663273 -5.36167e-05 -6.35345e-07)
(0.0663315 -5.40266e-05 -6.3539e-07)
(0.0663357 -5.44429e-05 -6.35436e-07)
(0.06634 -5.48657e-05 -6.35483e-07)
(0.0663444 -5.52951e-05 -6.3553e-07)
(0.0663488 -5.57312e-05 -6.35578e-07)
(0.0663533 -5.61743e-05 -6.35627e-07)
(0.0663578 -5.66245e-05 -6.35677e-07)
(0.0664205 -5.66726e-05 -6.97041e-10)
(0.066224 -4.87608e-05 -6.34406e-07)
(0.0662271 -4.90997e-05 -6.3444e-07)
(0.0662302 -4.94433e-05 -6.34475e-07)
(0.0662333 -4.97918e-05 -6.34511e-07)
(0.0662365 -5.01452e-05 -6.34547e-07)
(0.0662398 -5.05037e-05 -6.34583e-07)
(0.0662431 -5.08674e-05 -6.3462e-07)
(0.0662464 -5.12363e-05 -6.34658e-07)
(0.0662498 -5.16106e-05 -6.34696e-07)
(0.0662532 -5.19904e-05 -6.34735e-07)
(0.0662567 -5.23759e-05 -6.34774e-07)
(0.0662602 -5.27671e-05 -6.34814e-07)
(0.0662638 -5.31642e-05 -6.34855e-07)
(0.0662675 -5.35673e-05 -6.34896e-07)
(0.0662712 -5.39766e-05 -6.34938e-07)
(0.0662749 -5.43922e-05 -6.3498e-07)
(0.0662787 -5.48142e-05 -6.35023e-07)
(0.0662826 -5.52429e-05 -6.35067e-07)
(0.0662865 -5.56782e-05 -6.35112e-07)
(0.0662905 -5.61206e-05 -6.35157e-07)
(0.0662946 -5.65699e-05 -6.35203e-07)
(0.0663572 -5.6618e-05 -6.42971e-10)
(0.0661696 -4.87191e-05 -6.33997e-07)
(0.0661722 -4.90574e-05 -6.34029e-07)
(0.066175 -4.94005e-05 -6.34061e-07)
(0.0661777 -4.97485e-05 -6.34094e-07)
(0.0661805 -5.01013e-05 -6.34127e-07)
(0.0661834 -5.04593e-05 -6.3416e-07)
(0.0661862 -5.08223e-05 -6.34195e-07)
(0.0661892 -5.11907e-05 -6.34229e-07)
(0.0661921 -5.15644e-05 -6.34264e-07)
(0.0661951 -5.19436e-05 -6.343e-07)
(0.0661982 -5.23284e-05 -6.34336e-07)
(0.0662013 -5.2719e-05 -6.34373e-07)
(0.0662044 -5.31154e-05 -6.3441e-07)
(0.0662076 -5.35179e-05 -6.34447e-07)
(0.0662109 -5.39265e-05 -6.34486e-07)
(0.0662142 -5.43413e-05 -6.34525e-07)
(0.0662175 -5.47626e-05 -6.34564e-07)
(0.0662209 -5.51905e-05 -6.34604e-07)
(0.0662243 -5.56252e-05 -6.34645e-07)
(0.0662278 -5.60667e-05 -6.34687e-07)
(0.0662314 -5.65153e-05 -6.34729e-07)
(0.066294 -5.65634e-05 -5.89021e-10)
(0.0661151 -4.86773e-05 -6.33589e-07)
(0.0661174 -4.90151e-05 -6.33618e-07)
(0.0661198 -4.93577e-05 -6.33647e-07)
(0.0661221 -4.97051e-05 -6.33677e-07)
(0.0661246 -5.00574e-05 -6.33707e-07)
(0.066127 -5.04147e-05 -6.33738e-07)
(0.0661295 -5.07772e-05 -6.33769e-07)
(0.066132 -5.11449e-05 -6.338e-07)
(0.0661345 -5.1518e-05 -6.33832e-07)
(0.0661371 -5.18966e-05 -6.33865e-07)
(0.0661397 -5.22808e-05 -6.33897e-07)
(0.0661424 -5.26707e-05 -6.33931e-07)
(0.0661451 -5.30665e-05 -6.33965e-07)
(0.0661478 -5.34683e-05 -6.33999e-07)
(0.0661506 -5.38762e-05 -6.34034e-07)
(0.0661534 -5.42904e-05 -6.3407e-07)
(0.0661563 -5.4711e-05 -6.34106e-07)
(0.0661592 -5.51381e-05 -6.34142e-07)
(0.0661622 -5.5572e-05 -6.34179e-07)
(0.0661652 -5.60128e-05 -6.34217e-07)
(0.0661683 -5.64606e-05 -6.34255e-07)
(0.0662308 -5.65087e-05 -5.35189e-10)
(0.0660607 -4.86354e-05 -6.33181e-07)
(0.0660627 -4.89727e-05 -6.33207e-07)
(0.0660646 -4.93147e-05 -6.33234e-07)
(0.0660666 -4.96616e-05 -6.3326e-07)
(0.0660686 -5.00133e-05 -6.33288e-07)
(0.0660707 -5.03701e-05 -6.33315e-07)
(0.0660727 -5.0732e-05 -6.33343e-07)
(0.0660748 -5.10991e-05 -6.33372e-07)
(0.066077 -5.14716e-05 -6.334e-07)
(0.0660791 -5.18496e-05 -6.3343e-07)
(0.0660813 -5.22332e-05 -6.33459e-07)
(0.0660835 -5.26224e-05 -6.33489e-07)
(0.0660858 -5.30175e-05 -6.3352e-07)
(0.0660881 -5.34186e-05 -6.33551e-07)
(0.0660904 -5.38259e-05 -6.33583e-07)
(0.0660928 -5.42393e-05 -6.33615e-07)
(0.0660952 -5.46592e-05 -6.33647e-07)
(0.0660976 -5.50856e-05 -6.3368e-07)
(0.0661001 -5.55188e-05 -6.33714e-07)
(0.0661026 -5.59587e-05 -6.33748e-07)
(0.0661052 -5.64058e-05 -6.33782e-07)
(0.0661677 -5.64538e-05 -4.81475e-10)
(0.0660064 -4.85934e-05 -6.32773e-07)
(0.0660079 -4.89302e-05 -6.32797e-07)
(0.0660095 -4.92717e-05 -6.3282e-07)
(0.0660111 -4.9618e-05 -6.32844e-07)
(0.0660127 -4.99692e-05 -6.32868e-07)
(0.0660144 -5.03254e-05 -6.32893e-07)
(0.066016 -5.06867e-05 -6.32918e-07)
(0.0660177 -5.10532e-05 -6.32943e-07)
(0.0660194 -5.14251e-05 -6.32969e-07)
(0.0660212 -5.18025e-05 -6.32995e-07)
(0.0660229 -5.21854e-05 -6.33021e-07)
(0.0660247 -5.2574e-05 -6.33048e-07)
(0.0660266 -5.29685e-05 -6.33075e-07)
(0.0660284 -5.33689e-05 -6.33103e-07)
(0.0660303 -5.37754e-05 -6.33131e-07)
(0.0660322 -5.41882e-05 -6.3316e-07)
(0.0660341 -5.46073e-05 -6.33189e-07)
(0.0660361 -5.5033e-05 -6.33218e-07)
(0.0660381 -5.54654e-05 -6.33248e-07)
(0.0660401 -5.59046e-05 -6.33278e-07)
(0.0660422 -5.63508e-05 -6.33309e-07)
(0.0661046 -5.63988e-05 -4.27881e-10)
(0.0659521 -4.85513e-05 -6.32366e-07)
(0.0659533 -4.88876e-05 -6.32386e-07)
(0.0659545 -4.92286e-05 -6.32407e-07)
(0.0659557 -4.95743e-05 -6.32428e-07)
(0.0659569 -4.99249e-05 -6.32449e-07)
(0.0659581 -5.02806e-05 -6.32471e-07)
(0.0659594 -5.06413e-05 -6.32493e-07)
(0.0659607 -5.10073e-05 -6.32515e-07)
(0.065962 -5.13785e-05 -6.32538e-07)
(0.0659633 -5.17553e-05 -6.3256e-07)
(0.0659646 -5.21375e-05 -6.32584e-07)
(0.065966 -5.25255e-05 -6.32607e-07)
(0.0659674 -5.29193e-05 -6.32631e-07)
(0.0659688 -5.3319e-05 -6.32656e-07)
(0.0659702 -5.37249e-05 -6.3268e-07)
(0.0659716 -5.41369e-05 -6.32705e-07)
(0.0659731 -5.45554e-05 -6.32731e-07)
(0.0659746 -5.49803e-05 -6.32757e-07)
(0.0659761 -5.54119e-05 -6.32783e-07)
(0.0659776 -5.58503e-05 -6.32809e-07)
(0.0659792 -5.62958e-05 -6.32837e-07)
(0.0660416 -5.63438e-05 -3.74406e-10)
(0.0658978 -4.85092e-05 -6.31958e-07)
(0.0658986 -4.88449e-05 -6.31976e-07)
(0.0658994 -4.91854e-05 -6.31994e-07)
(0.0659002 -4.95306e-05 -6.32012e-07)
(0.0659011 -4.98806e-05 -6.3203e-07)
(0.0659019 -5.02357e-05 -6.32049e-07)
(0.0659028 -5.05958e-05 -6.32068e-07)
(0.0659037 -5.09612e-05 -6.32087e-07)
(0.0659045 -5.13318e-05 -6.32106e-07)
(0.0659054 -5.17079e-05 -6.32126e-07)
(0.0659063 -5.20896e-05 -6.32146e-07)
(0.0659073 -5.24769e-05 -6.32167e-07)
(0.0659082 -5.287e-05 -6.32187e-07)
(0.0659092 -5.32691e-05 -6.32208e-07)
(0.0659101 -5.36742e-05 -6.32229e-07)
(0.0659111 -5.40856e-05 -6.32251e-07)
(0.0659121 -5.45033e-05 -6.32273e-07)
(0.0659131 -5.49275e-05 -6.32295e-07)
(0.0659141 -5.53583e-05 -6.32318e-07)
(0.0659152 -5.5796e-05 -6.32341e-07)
(0.0659163 -5.62406e-05 -6.32364e-07)
(0.0659786 -5.62886e-05 -3.21059e-10)
(0.0658436 -4.84675e-05 -6.31552e-07)
(0.065844 -4.88027e-05 -6.31566e-07)
(0.0658444 -4.91426e-05 -6.31581e-07)
(0.0658449 -4.94872e-05 -6.31596e-07)
(0.0658453 -4.98368e-05 -6.31612e-07)
(0.0658458 -5.01913e-05 -6.31628e-07)
(0.0658462 -5.05508e-05 -6.31643e-07)
(0.0658467 -5.09156e-05 -6.31659e-07)
(0.0658472 -5.12856e-05 -6.31676e-07)
(0.0658476 -5.16611e-05 -6.31692e-07)
(0.0658481 -5.20421e-05 -6.31709e-07)
(0.0658486 -5.24288e-05 -6.31726e-07)
(0.0658491 -5.28213e-05 -6.31744e-07)
(0.0658496 -5.32197e-05 -6.31761e-07)
(0.0658501 -5.36241e-05 -6.31779e-07)
(0.0658507 -5.40348e-05 -6.31797e-07)
(0.0658512 -5.44517e-05 -6.31816e-07)
(0.0658517 -5.48752e-05 -6.31834e-07)
(0.0658523 -5.53053e-05 -6.31853e-07)
(0.0658528 -5.57422e-05 -6.31873e-07)
(0.0658534 -5.61861e-05 -6.31892e-07)
(0.0659157 -5.6234e-05 -2.56049e-10)
(0.0657873 -4.83004e-05 -6.31421e-07)
(0.0657873 -4.86342e-05 -6.31435e-07)
(0.0657874 -4.89727e-05 -6.31449e-07)
(0.0657874 -4.93159e-05 -6.31464e-07)
(0.0657874 -4.9664e-05 -6.31478e-07)
(0.0657875 -5.0017e-05 -6.31493e-07)
(0.0657875 -5.03751e-05 -6.31508e-07)
(0.0657876 -5.07384e-05 -6.31523e-07)
(0.0657876 -5.11069e-05 -6.31538e-07)
(0.0657876 -5.14808e-05 -6.31554e-07)
(0.0657877 -5.18602e-05 -6.31569e-07)
(0.0657877 -5.22453e-05 -6.31586e-07)
(0.0657878 -5.26361e-05 -6.31602e-07)
(0.0657878 -5.30328e-05 -6.31618e-07)
(0.0657879 -5.34355e-05 -6.31635e-07)
(0.0657879 -5.38444e-05 -6.31652e-07)
(0.0657879 -5.42596e-05 -6.3167e-07)
(0.065788 -5.46813e-05 -6.31687e-07)
(0.065788 -5.51095e-05 -6.31705e-07)
(0.0657881 -5.55446e-05 -6.31723e-07)
(0.0657881 -5.59865e-05 -6.31742e-07)
(0.0658505 -5.60441e-05 -8.40427e-09)
)
;

boundaryField
{
    inlet
    {
        type            calculated;
        value           uniform (0 0 0);
    }
    outlet2
    {
        type            calculated;
        value           uniform (0 0 0);
    }
    outlet1
    {
        type            calculated;
        value           uniform (0 0 0);
    }
    wall
    {
        type            calculated;
        value           uniform (0 0 0);
    }
    symmetryBottom
    {
        type            symmetry;
    }
    symmetryZ0
    {
        type            symmetry;
    }
    symmetryZ05
    {
        type            symmetry;
    }
}


// ************************************************************************* //
