/*--------------------------------*- C++ -*----------------------------------*\
| =========                 |                                                 |
| \\      /  F ield         | OpenFOAM: The Open Source CFD Toolbox           |
|  \\    /   O peration     | Version:  2412                                  |
|   \\  /    A nd           | Website:  www.openfoam.com                      |
|    \\/     M anipulation  |                                                 |
\*---------------------------------------------------------------------------*/
FoamFile
{
    version     2.0;
    format      ascii;
    arch        "LSB;label=32;scalar=64";
    class       volVectorField;
    location    "9.13819e-07";
    object      rhoU_dof2;
}
// * * * * * * * * * * * * * * * * * * * * * * * * * * * * * * * * * * * * * //

dimensions      [0 0 0 0 0 0 0];

internalField   nonuniform List<vector> 
625
(
(7.32914e-06 -0.000150931 3.87555e-10)
(1.44908e-05 -0.00013654 4.20167e-10)
(-7.18235e-08 2.80131e-06 -0.000525386)
(-5.46387e-06 3.56737e-06 3.46427e-10)
(2.6152e-06 2.76897e-06 3.63286e-10)
(-3.05568e-07 2.80893e-06 -0.000525407)
(-1.20513e-06 3.13844e-06 3.74584e-10)
(6.5448e-06 2.37295e-06 3.98549e-10)
(-3.05198e-07 2.80888e-06 -0.000525395)
(-1.21915e-06 3.13985e-06 3.74532e-10)
(6.53168e-06 2.37426e-06 3.98478e-10)
(-3.05199e-07 2.80888e-06 -0.000525395)
(-1.21912e-06 3.13985e-06 3.74532e-10)
(6.53171e-06 2.37426e-06 3.98478e-10)
(-3.05199e-07 2.80888e-06 -0.000525395)
(-1.21912e-06 3.13985e-06 3.74532e-10)
(6.53171e-06 2.37426e-06 3.98478e-10)
(-3.05199e-07 2.80888e-06 -0.000525395)
(-1.21912e-06 3.13985e-06 3.74532e-10)
(6.53171e-06 2.37426e-06 3.98478e-10)
(-3.05199e-07 2.80888e-06 -0.000525395)
(-1.21912e-06 3.13985e-06 3.74532e-10)
(6.53171e-06 2.37426e-06 3.98478e-10)
(-3.05199e-07 2.80888e-06 -0.000525395)
(-1.21912e-06 3.13985e-06 3.74532e-10)
(6.53171e-06 2.37426e-06 3.98478e-10)
(-3.05199e-07 2.80888e-06 -0.000525395)
(-1.21912e-06 3.13985e-06 3.74532e-10)
(6.53171e-06 2.37426e-06 3.98478e-10)
(-3.05199e-07 2.80888e-06 -0.000525395)
(-1.21912e-06 3.13985e-06 3.74532e-10)
(6.53171e-06 2.37426e-06 3.98478e-10)
(-3.05199e-07 2.80888e-06 -0.000525395)
(-1.21912e-06 3.13985e-06 3.74532e-10)
(6.53171e-06 2.37426e-06 3.98478e-10)
(-3.05199e-07 2.80888e-06 -0.000525395)
(-1.21912e-06 3.13985e-06 3.74532e-10)
(6.53171e-06 2.37426e-06 3.98478e-10)
(-3.05199e-07 2.80888e-06 -0.000525395)
(-1.21912e-06 3.13985e-06 3.74532e-10)
(6.53171e-06 2.37426e-06 3.98478e-10)
(-3.05199e-07 2.80888e-06 -0.000525395)
(-1.21912e-06 3.13985e-06 3.74532e-10)
(6.53171e-06 2.37426e-06 3.98478e-10)
(-3.05199e-07 2.80888e-06 -0.000525395)
(-1.21912e-06 3.13985e-06 3.74532e-10)
(6.53171e-06 2.37426e-06 3.98478e-10)
(-3.05199e-07 2.80888e-06 -0.000525395)
(-1.21912e-06 3.13985e-06 3.74532e-10)
(6.53171e-06 2.37426e-06 3.98478e-10)
(-3.05199e-07 2.80888e-06 -0.000525395)
(-1.21912e-06 3.13985e-06 3.74532e-10)
(6.53171e-06 2.37426e-06 3.98478e-10)
(-3.05199e-07 2.80888e-06 -0.000525395)
(-1.21912e-06 3.13985e-06 3.74532e-10)
(6.53171e-06 2.37426e-06 3.98478e-10)
(-3.05199e-07 2.80888e-06 -0.000525395)
(-1.21912e-06 3.13985e-06 3.74532e-10)
(6.53171e-06 2.37426e-06 3.98478e-10)
(-3.05199e-07 2.80888e-06 -0.000525395)
(-1.21912e-06 3.13985e-06 3.74532e-10)
(6.53171e-06 2.37426e-06 3.98478e-10)
(-3.05199e-07 2.80888e-06 -0.000525395)
(-1.21912e-06 3.13985e-06 3.74532e-10)
(6.53171e-06 2.37426e-06 3.98478e-10)
(-3.05199e-07 2.80888e-06 -0.000525395)
(-1.21912e-06 3.13985e-06 3.74532e-10)
(6.53168e-06 2.37426e-06 3.98478e-10)
(-3.0471e-07 2.80884e-06 -0.000525395)
(-1.22061e-06 3.13999e-06 3.74418e-10)
(6.55387e-06 2.37261e-06 3.98379e-10)
(2.70232e-07 2.77311e-06 -0.000525396)
(-4.12429e-07 3.08963e-06 -1.97423e-12)
(-4.40257e-07 2.79041e-06 -2.63101e-12)
(-5.57919e-07 2.80222e-06 9.58901e-09)
(0.00439765 -0.000160566 7.31184e-10)
(0.00442778 -0.000161839 7.50791e-10)
(0.00445832 -0.000163132 7.70925e-10)
(0.00448928 -0.000164445 7.91604e-10)
(0.00452068 -0.000165779 8.12847e-10)
(0.00455252 -0.000167135 8.34673e-10)
(0.00458481 -0.000168512 8.57102e-10)
(0.00461756 -0.000169912 8.80155e-10)
(0.00465078 -0.000171336 9.03854e-10)
(0.00468448 -0.000172782 9.28222e-10)
(0.00471868 -0.000174254 9.53282e-10)
(0.00475338 -0.00017575 9.79059e-10)
(0.00478859 -0.000177271 1.00558e-09)
(0.00482432 -0.000178819 1.03287e-09)
(0.0048606 -0.000180393 1.06096e-09)
(0.00489742 -0.000181996 1.08988e-09)
(0.0049348 -0.000183626 1.11966e-09)
(0.00497276 -0.000185286 1.15033e-09)
(0.00501131 -0.000186975 1.18193e-09)
(0.00505046 -0.000188695 1.21449e-09)
(0.00509022 -0.000190446 1.24804e-09)
(1.9349e-08 3.11677e-06 -0.000582414)
(-0.000118567 -5.8906e-06 1.5713e-09)
(-0.000119785 -6.01806e-06 1.58268e-09)
(-0.000121026 -6.14841e-06 1.59423e-09)
(-0.00012229 -6.28174e-06 1.60595e-09)
(-0.000123578 -6.41813e-06 1.61784e-09)
(-0.00012489 -6.55768e-06 1.6299e-09)
(-0.000126228 -6.70049e-06 1.64215e-09)
(-0.000127591 -6.84667e-06 1.65458e-09)
(-0.000128981 -6.99632e-06 1.6672e-09)
(-0.000130399 -7.14955e-06 1.68001e-09)
(-0.000131844 -7.30647e-06 1.69302e-09)
(-0.000133319 -7.46722e-06 1.70623e-09)
(-0.000134823 -7.63191e-06 1.71965e-09)
(-0.000136357 -7.80067e-06 1.73328e-09)
(-0.000137923 -7.97365e-06 1.74713e-09)
(-0.000139521 -8.15098e-06 1.76119e-09)
(-0.000141153 -8.33281e-06 1.77549e-09)
(-0.000142818 -8.5193e-06 1.79002e-09)
(-0.00014452 -8.7106e-06 1.80478e-09)
(-0.000146257 -8.90689e-06 1.81979e-09)
(-0.000148032 -9.10834e-06 1.83505e-09)
(-3.56606e-07 2.92503e-06 -0.000547442)
(-6.67508e-05 2.4449e-06 1.45529e-09)
(-6.72376e-05 2.44476e-06 1.46546e-09)
(-6.77316e-05 2.44468e-06 1.47577e-09)
(-6.82329e-05 2.44464e-06 1.48623e-09)
(-6.87416e-05 2.44466e-06 1.49684e-09)
(-6.92579e-05 2.44473e-06 1.50759e-09)
(-6.97821e-05 2.44487e-06 1.51851e-09)
(-7.03142e-05 2.44506e-06 1.52958e-09)
(-7.08545e-05 2.44532e-06 1.54082e-09)
(-7.1403e-05 2.44565e-06 1.55222e-09)
(-7.19602e-05 2.44605e-06 1.56379e-09)
(-7.25261e-05 2.44652e-06 1.57554e-09)
(-7.31008e-05 2.44707e-06 1.58746e-09)
(-7.36848e-05 2.4477e-06 1.59957e-09)
(-7.42782e-05 2.44842e-06 1.61186e-09)
(-7.48811e-05 2.44922e-06 1.62434e-09)
(-7.54938e-05 2.45013e-06 1.63701e-09)
(-7.61167e-05 2.45113e-06 1.64988e-09)
(-7.67499e-05 2.45223e-06 1.66296e-09)
(-7.73937e-05 2.45344e-06 1.67625e-09)
(-7.80482e-05 2.45477e-06 1.68975e-09)
(-3.60793e-07 2.92313e-06 -0.00054708)
(-6.73175e-05 2.35104e-06 1.40029e-09)
(-6.78065e-05 2.34891e-06 1.4101e-09)
(-6.83027e-05 2.34677e-06 1.42004e-09)
(-6.88062e-05 2.34462e-06 1.43012e-09)
(-6.93171e-05 2.34247e-06 1.44035e-09)
(-6.98356e-05 2.3403e-06 1.45073e-09)
(-7.0362e-05 2.33813e-06 1.46126e-09)
(-7.08963e-05 2.33595e-06 1.47194e-09)
(-7.14387e-05 2.33377e-06 1.48277e-09)
(-7.19895e-05 2.33157e-06 1.49377e-09)
(-7.25488e-05 2.32937e-06 1.50494e-09)
(-7.31169e-05 2.32717e-06 1.51627e-09)
(-7.36938e-05 2.32496e-06 1.52777e-09)
(-7.428e-05 2.32274e-06 1.53945e-09)
(-7.48754e-05 2.32052e-06 1.55131e-09)
(-7.54805e-05 2.3183e-06 1.56335e-09)
(-7.60954e-05 2.31607e-06 1.57558e-09)
(-7.67203e-05 2.31384e-06 1.58801e-09)
(-7.73556e-05 2.31161e-06 1.60063e-09)
(-7.80014e-05 2.30937e-06 1.61345e-09)
(-7.86581e-05 2.30714e-06 1.62648e-09)
(-3.60509e-07 2.92072e-06 -0.000546624)
(-6.78801e-05 2.34301e-06 1.34388e-09)
(-6.83714e-05 2.34077e-06 1.35329e-09)
(-6.88698e-05 2.33851e-06 1.36283e-09)
(-6.93756e-05 2.33625e-06 1.37251e-09)
(-6.98887e-05 2.33397e-06 1.38233e-09)
(-7.04096e-05 2.33168e-06 1.39229e-09)
(-7.09382e-05 2.32938e-06 1.40239e-09)
(-7.14748e-05 2.32707e-06 1.41264e-09)
(-7.20195e-05 2.32475e-06 1.42304e-09)
(-7.25727e-05 2.32243e-06 1.4336e-09)
(-7.31342e-05 2.32009e-06 1.44431e-09)
(-7.37046e-05 2.31774e-06 1.45518e-09)
(-7.4284e-05 2.31539e-06 1.46622e-09)
(-7.48724e-05 2.31303e-06 1.47743e-09)
(-7.54702e-05 2.31066e-06 1.48881e-09)
(-7.60776e-05 2.30828e-06 1.50037e-09)
(-7.66949e-05 2.3059e-06 1.51211e-09)
(-7.73222e-05 2.30351e-06 1.52404e-09)
(-7.79598e-05 2.30112e-06 1.53615e-09)
(-7.8608e-05 2.29872e-06 1.54846e-09)
(-7.9267e-05 2.29632e-06 1.56096e-09)
(-3.60266e-07 2.91832e-06 -0.00054617)
(-6.84526e-05 2.3345e-06 1.28749e-09)
(-6.89463e-05 2.33213e-06 1.29651e-09)
(-6.94471e-05 2.32974e-06 1.30565e-09)
(-6.99552e-05 2.32734e-06 1.31492e-09)
(-7.04708e-05 2.32492e-06 1.32433e-09)
(-7.0994e-05 2.32249e-06 1.33387e-09)
(-7.1525e-05 2.32005e-06 1.34355e-09)
(-7.2064e-05 2.3176e-06 1.35337e-09)
(-7.26112e-05 2.31513e-06 1.36333e-09)
(-7.31667e-05 2.31265e-06 1.37345e-09)
(-7.37308e-05 2.31015e-06 1.38371e-09)
(-7.43036e-05 2.30765e-06 1.39413e-09)
(-7.48854e-05 2.30513e-06 1.40471e-09)
(-7.54764e-05 2.3026e-06 1.41545e-09)
(-7.60766e-05 2.30006e-06 1.42635e-09)
(-7.66865e-05 2.29751e-06 1.43743e-09)
(-7.73062e-05 2.29495e-06 1.44867e-09)
(-7.7936e-05 2.29238e-06 1.4601e-09)
(-7.85761e-05 2.28979e-06 1.4717e-09)
(-7.92269e-05 2.2872e-06 1.4835e-09)
(-7.98883e-05 2.2846e-06 1.49548e-09)
(-3.60023e-07 2.91592e-06 -0.000545716)
(-6.90369e-05 2.32597e-06 1.2311e-09)
(-6.9533e-05 2.32347e-06 1.23973e-09)
(-7.00363e-05 2.32095e-06 1.24847e-09)
(-7.0547e-05 2.31841e-06 1.25734e-09)
(-7.10652e-05 2.31586e-06 1.26633e-09)
(-7.15909e-05 2.31329e-06 1.27545e-09)
(-7.21246e-05 2.31071e-06 1.28471e-09)
(-7.26662e-05 2.3081e-06 1.2941e-09)
(-7.32159e-05 2.30549e-06 1.30363e-09)
(-7.37741e-05 2.30285e-06 1.3133e-09)
(-7.43408e-05 2.3002e-06 1.32312e-09)
(-7.49163e-05 2.29754e-06 1.33308e-09)
(-7.55007e-05 2.29485e-06 1.3432e-09)
(-7.60943e-05 2.29216e-06 1.35347e-09)
(-7.66973e-05 2.28945e-06 1.36389e-09)
(-7.73099e-05 2.28672e-06 1.37448e-09)
(-7.79323e-05 2.28398e-06 1.38524e-09)
(-7.85648e-05 2.28122e-06 1.39616e-09)
(-7.92077e-05 2.27845e-06 1.40726e-09)
(-7.9861e-05 2.27567e-06 1.41854e-09)
(-8.05253e-05 2.27287e-06 1.43e-09)
(-3.5978e-07 2.91352e-06 -0.000545263)
(-6.96329e-05 2.31743e-06 1.17472e-09)
(-7.01317e-05 2.31479e-06 1.18295e-09)
(-7.06377e-05 2.31214e-06 1.19129e-09)
(-7.11511e-05 2.30947e-06 1.19975e-09)
(-7.16719e-05 2.30678e-06 1.20834e-09)
(-7.22005e-05 2.30407e-06 1.21704e-09)
(-7.27368e-05 2.30134e-06 1.22588e-09)
(-7.32813e-05 2.29859e-06 1.23484e-09)
(-7.38338e-05 2.29582e-06 1.24393e-09)
(-7.43948e-05 2.29304e-06 1.25316e-09)
(-7.49644e-05 2.29023e-06 1.26253e-09)
(-7.55427e-05 2.2874e-06 1.27204e-09)
(-7.61299e-05 2.28456e-06 1.28169e-09)
(-7.67264e-05 2.28169e-06 1.29149e-09)
(-7.73323e-05 2.27881e-06 1.30144e-09)
(-7.79478e-05 2.2759e-06 1.31155e-09)
(-7.85732e-05 2.27298e-06 1.32181e-09)
(-7.92086e-05 2.27004e-06 1.33224e-09)
(-7.98544e-05 2.26708e-06 1.34283e-09)
(-8.05108e-05 2.2641e-06 1.35359e-09)
(-8.1178e-05 2.26111e-06 1.36452e-09)
(-3.59537e-07 2.91112e-06 -0.00054481)
(-7.02406e-05 2.30886e-06 1.11835e-09)
(-7.07423e-05 2.3061e-06 1.12618e-09)
(-7.12511e-05 2.30332e-06 1.13412e-09)
(-7.17674e-05 2.30051e-06 1.14218e-09)
(-7.22912e-05 2.29768e-06 1.15035e-09)
(-7.28226e-05 2.29483e-06 1.15864e-09)
(-7.3362e-05 2.29196e-06 1.16705e-09)
(-7.39093e-05 2.28906e-06 1.17558e-09)
(-7.44649e-05 2.28614e-06 1.18424e-09)
(-7.50289e-05 2.2832e-06 1.19303e-09)
(-7.56014e-05 2.28023e-06 1.20195e-09)
(-7.61828e-05 2.27725e-06 1.211e-09)
(-7.67732e-05 2.27424e-06 1.22019e-09)
(-7.73727e-05 2.2712e-06 1.22952e-09)
(-7.79817e-05 2.26814e-06 1.239e-09)
(-7.86003e-05 2.26506e-06 1.24862e-09)
(-7.92288e-05 2.26196e-06 1.25839e-09)
(-7.98675e-05 2.25883e-06 1.26832e-09)
(-8.05164e-05 2.25569e-06 1.2784e-09)
(-8.1176e-05 2.25251e-06 1.28865e-09)
(-8.18465e-05 2.24932e-06 1.29906e-09)
(-3.59295e-07 2.90872e-06 -0.000544357)
(-7.08481e-05 2.30107e-06 1.0612e-09)
(-7.13527e-05 2.29818e-06 1.06863e-09)
(-7.18646e-05 2.29526e-06 1.07616e-09)
(-7.23839e-05 2.29232e-06 1.0838e-09)
(-7.29107e-05 2.28935e-06 1.09155e-09)
(-7.34454e-05 2.28636e-06 1.09941e-09)
(-7.39877e-05 2.28334e-06 1.10739e-09)
(-7.45383e-05 2.2803e-06 1.11548e-09)
(-7.5097e-05 2.27723e-06 1.12369e-09)
(-7.56642e-05 2.27413e-06 1.1323e-09)
(-7.624e-05 2.27101e-06 1.14076e-09)
(-7.68246e-05 2.26786e-06 1.14935e-09)
(-7.74181e-05 2.26469e-06 1.15807e-09)
(-7.8021e-05 2.26149e-06 1.16692e-09)
(-7.86333e-05 2.25826e-06 1.17591e-09)
(-7.92552e-05 2.255e-06 1.18503e-09)
(-7.98872e-05 2.25172e-06 1.19431e-09)
(-8.05291e-05 2.24841e-06 1.20372e-09)
(-8.11815e-05 2.24507e-06 1.21329e-09)
(-8.18446e-05 2.2417e-06 1.22301e-09)
(-8.25185e-05 2.23831e-06 1.23289e-09)
(-3.58868e-07 2.90634e-06 -0.000543905)
(-7.10895e-05 2.3165e-06 1.03139e-09)
(-7.15946e-05 2.31366e-06 1.03861e-09)
(-7.21068e-05 2.31078e-06 1.04592e-09)
(-7.26266e-05 2.30789e-06 1.05335e-09)
(-7.31538e-05 2.30497e-06 1.06087e-09)
(-7.36887e-05 2.30202e-06 1.06851e-09)
(-7.42315e-05 2.29905e-06 1.07625e-09)
(-7.47823e-05 2.29605e-06 1.08411e-09)
(-7.53414e-05 2.29302e-06 1.09208e-09)
(-7.59089e-05 2.28997e-06 1.10017e-09)
(-7.6485e-05 2.28689e-06 1.10838e-09)
(-7.70699e-05 2.28378e-06 1.11672e-09)
(-7.76637e-05 2.28064e-06 1.12518e-09)
(-7.82668e-05 2.27748e-06 1.13377e-09)
(-7.88794e-05 2.27429e-06 1.14249e-09)
(-7.95016e-05 2.27108e-06 1.15135e-09)
(-8.01336e-05 2.26783e-06 1.16035e-09)
(-8.07758e-05 2.26456e-06 1.16949e-09)
(-8.14283e-05 2.26126e-06 1.17877e-09)
(-8.20915e-05 2.25793e-06 1.1882e-09)
(-8.27655e-05 2.25457e-06 1.19779e-09)
(-3.58921e-07 2.90393e-06 -0.000543444)
(-7.13252e-05 2.33252e-06 1.00191e-09)
(-7.18305e-05 2.32975e-06 1.00891e-09)
(-7.2343e-05 2.32694e-06 1.01602e-09)
(-7.28628e-05 2.32411e-06 1.02322e-09)
(-7.33902e-05 2.32126e-06 1.03053e-09)
(-7.39252e-05 2.31838e-06 1.03794e-09)
(-7.44681e-05 2.31547e-06 1.04546e-09)
(-7.5019e-05 2.31254e-06 1.05309e-09)
(-7.55782e-05 2.30959e-06 1.06083e-09)
(-7.61456e-05 2.3066e-06 1.06869e-09)
(-7.67217e-05 2.30359e-06 1.07666e-09)
(-7.73066e-05 2.30055e-06 1.08475e-09)
(-7.79004e-05 2.29749e-06 1.09297e-09)
(-7.85035e-05 2.2944e-06 1.10131e-09)
(-7.91158e-05 2.29128e-06 1.10978e-09)
(-7.97379e-05 2.28813e-06 1.11838e-09)
(-8.03698e-05 2.28496e-06 1.12712e-09)
(-8.10118e-05 2.28175e-06 1.13599e-09)
(-8.16641e-05 2.27852e-06 1.145e-09)
(-8.2327e-05 2.27526e-06 1.15416e-09)
(-8.30007e-05 2.27198e-06 1.16346e-09)
(-3.59241e-07 2.90149e-06 -0.000542983)
(-7.15658e-05 2.34893e-06 9.72512e-10)
(-7.20714e-05 2.34622e-06 9.79307e-10)
(-7.2584e-05 2.34349e-06 9.86198e-10)
(-7.31041e-05 2.34073e-06 9.93186e-10)
(-7.36316e-05 2.33795e-06 1.00028e-09)
(-7.41669e-05 2.33515e-06 1.00747e-09)
(-7.47099e-05 2.33231e-06 1.01477e-09)
(-7.5261e-05 2.32946e-06 1.02217e-09)
(-7.58202e-05 2.32657e-06 1.02968e-09)
(-7.63879e-05 2.32366e-06 1.0373e-09)
(-7.6964e-05 2.32073e-06 1.04503e-09)
(-7.7549e-05 2.31777e-06 1.05288e-09)
(-7.81429e-05 2.31478e-06 1.06085e-09)
(-7.87459e-05 2.31176e-06 1.06894e-09)
(-7.93583e-05 2.30872e-06 1.07715e-09)
(-7.99803e-05 2.30565e-06 1.0855e-09)
(-8.06122e-05 2.30256e-06 1.09398e-09)
(-8.1254e-05 2.29943e-06 1.10258e-09)
(-8.19062e-05 2.29628e-06 1.11133e-09)
(-8.25689e-05 2.2931e-06 1.12021e-09)
(-8.32424e-05 2.28989e-06 1.12923e-09)
(-3.5952e-07 2.89905e-06 -0.000542523)
(-7.18112e-05 2.3657e-06 9.4319e-10)
(-7.23171e-05 2.36307e-06 9.49777e-10)
(-7.28301e-05 2.36042e-06 9.56456e-10)
(-7.33505e-05 2.35774e-06 9.6323e-10)
(-7.38783e-05 2.35504e-06 9.70108e-10)
(-7.44138e-05 2.35231e-06 9.7708e-10)
(-7.49572e-05 2.34956e-06 9.8415e-10)
(-7.55085e-05 2.34678e-06 9.91324e-10)
(-7.60679e-05 2.34398e-06 9.98602e-10)
(-7.66357e-05 2.34115e-06 1.00599e-09)
(-7.72121e-05 2.3383e-06 1.01349e-09)
(-7.77972e-05 2.33542e-06 1.02109e-09)
(-7.83911e-05 2.33251e-06 1.02882e-09)
(-7.89943e-05 2.32958e-06 1.03666e-09)
(-7.96068e-05 2.32662e-06 1.04462e-09)
(-8.02288e-05 2.32363e-06 1.05271e-09)
(-8.08607e-05 2.32062e-06 1.06093e-09)
(-8.15026e-05 2.31758e-06 1.06927e-09)
(-8.21547e-05 2.31452e-06 1.07775e-09)
(-8.28173e-05 2.31142e-06 1.08635e-09)
(-8.34907e-05 2.3083e-06 1.0951e-09)
(-3.59799e-07 2.89661e-06 -0.000542063)
(-7.20615e-05 2.38286e-06 9.13945e-10)
(-7.25677e-05 2.38031e-06 9.20324e-10)
(-7.30812e-05 2.37774e-06 9.26793e-10)
(-7.36019e-05 2.37514e-06 9.33353e-10)
(-7.41301e-05 2.37252e-06 9.40016e-10)
(-7.4666e-05 2.36988e-06 9.46769e-10)
(-7.52096e-05 2.36721e-06 9.53616e-10)
(-7.57612e-05 2.36452e-06 9.60563e-10)
(-7.6321e-05 2.3618e-06 9.67612e-10)
(-7.68891e-05 2.35906e-06 9.74766e-10)
(-7.74657e-05 2.35629e-06 9.82025e-10)
(-7.8051e-05 2.3535e-06 9.89394e-10)
(-7.86452e-05 2.35068e-06 9.96874e-10)
(-7.92486e-05 2.34784e-06 1.00447e-09)
(-7.98613e-05 2.34497e-06 1.01218e-09)
(-8.04835e-05 2.34207e-06 1.02001e-09)
(-8.11154e-05 2.33915e-06 1.02797e-09)
(-8.17574e-05 2.3362e-06 1.03605e-09)
(-8.24096e-05 2.33323e-06 1.04426e-09)
(-8.30723e-05 2.33023e-06 1.05259e-09)
(-8.37457e-05 2.3272e-06 1.06106e-09)
(-3.60078e-07 2.89417e-06 -0.000541603)
(-7.23166e-05 2.40038e-06 8.84776e-10)
(-7.28234e-05 2.39792e-06 8.90949e-10)
(-7.33372e-05 2.39543e-06 8.97208e-10)
(-7.38584e-05 2.39292e-06 9.03556e-10)
(-7.4387e-05 2.39039e-06 9.10003e-10)
(-7.49234e-05 2.38784e-06 9.16539e-10)
(-7.54674e-05 2.38526e-06 9.23164e-10)
(-7.60194e-05 2.38266e-06 9.29885e-10)
(-7.65795e-05 2.38003e-06 9.36705e-10)
(-7.7148e-05 2.37738e-06 9.43627e-10)
(-7.77249e-05 2.37471e-06 9.50651e-10)
(-7.83106e-05 2.37201e-06 9.5778e-10)
(-7.89052e-05 2.36929e-06 9.65017e-10)
(-7.95087e-05 2.36654e-06 9.72364e-10)
(-8.01217e-05 2.36377e-06 9.79825e-10)
(-8.07441e-05 2.36097e-06 9.874e-10)
(-8.13764e-05 2.35814e-06 9.95108e-10)
(-8.20185e-05 2.35529e-06 1.00293e-09)
(-8.26709e-05 2.35242e-06 1.01086e-09)
(-8.33337e-05 2.34952e-06 1.01893e-09)
(-8.40073e-05 2.34659e-06 1.02712e-09)
(-3.60356e-07 2.89173e-06 -0.000541144)
(-7.25765e-05 2.41827e-06 8.55685e-10)
(-7.30837e-05 2.4159e-06 8.61651e-10)
(-7.35982e-05 2.41351e-06 8.67701e-10)
(-7.41199e-05 2.41109e-06 8.73837e-10)
(-7.46491e-05 2.40866e-06 8.8007e-10)
(-7.51858e-05 2.40619e-06 8.86389e-10)
(-7.57304e-05 2.40371e-06 8.92792e-10)
(-7.62829e-05 2.40121e-06 8.99289e-10)
(-7.68435e-05 2.39868e-06 9.05882e-10)
(-7.74124e-05 2.39613e-06 9.12572e-10)
(-7.79898e-05 2.39355e-06 9.19361e-10)
(-7.85759e-05 2.39095e-06 9.26252e-10)
(-7.91708e-05 2.38833e-06 9.33247e-10)
(-7.97749e-05 2.38568e-06 9.40349e-10)
(-8.03881e-05 2.38301e-06 9.47559e-10)
(-8.10109e-05 2.38032e-06 9.54881e-10)
(-8.16434e-05 2.3776e-06 9.6233e-10)
(-8.22859e-05 2.37485e-06 9.69889e-10)
(-8.29386e-05 2.37208e-06 9.77561e-10)
(-8.36017e-05 2.36929e-06 9.85356e-10)
(-8.42754e-05 2.36647e-06 9.93276e-10)
(-3.60634e-07 2.8893e-06 -0.000540685)
(-7.28412e-05 2.43654e-06 8.2667e-10)
(-7.33491e-05 2.43426e-06 8.32431e-10)
(-7.38641e-05 2.43196e-06 8.38273e-10)
(-7.43864e-05 2.42964e-06 8.44198e-10)
(-7.49162e-05 2.42731e-06 8.50216e-10)
(-7.54535e-05 2.42494e-06 8.56319e-10)
(-7.59986e-05 2.42256e-06 8.62503e-10)
(-7.65517e-05 2.42016e-06 8.68776e-10)
(-7.71128e-05 2.41773e-06 8.75141e-10)
(-7.76823e-05 2.41528e-06 8.81601e-10)
(-7.82602e-05 2.41281e-06 8.88156e-10)
(-7.88468e-05 2.41032e-06 8.9481e-10)
(-7.94422e-05 2.4078e-06 9.01564e-10)
(-8.00467e-05 2.40526e-06 9.0842e-10)
(-8.06605e-05 2.4027e-06 9.15382e-10)
(-8.12837e-05 2.40012e-06 9.22451e-10)
(-8.19166e-05 2.39751e-06 9.29642e-10)
(-8.25596e-05 2.39487e-06 9.36944e-10)
(-8.32126e-05 2.39222e-06 9.44352e-10)
(-8.38761e-05 2.38953e-06 9.51878e-10)
(-8.45502e-05 2.38683e-06 9.59524e-10)
(-3.60912e-07 2.88686e-06 -0.000540226)
(-7.31106e-05 2.45516e-06 7.97732e-10)
(-7.36192e-05 2.45299e-06 8.03288e-10)
(-7.41349e-05 2.45079e-06 8.08923e-10)
(-7.46579e-05 2.44858e-06 8.14638e-10)
(-7.51883e-05 2.44634e-06 8.20442e-10)
(-7.57264e-05 2.44408e-06 8.26331e-10)
(-7.62721e-05 2.44181e-06 8.32294e-10)
(-7.68258e-05 2.43951e-06 8.38345e-10)
(-7.73876e-05 2.43719e-06 8.44484e-10)
(-7.79576e-05 2.43485e-06 8.50714e-10)
(-7.85362e-05 2.43249e-06 8.57036e-10)
(-7.91234e-05 2.43011e-06 8.63453e-10)
(-7.97193e-05 2.42771e-06 8.69967e-10)
(-8.03244e-05 2.42528e-06 8.7658e-10)
(-8.09388e-05 2.42283e-06 8.83294e-10)
(-8.15625e-05 2.42036e-06 8.90112e-10)
(-8.21961e-05 2.41787e-06 8.97044e-10)
(-8.28394e-05 2.41536e-06 9.04091e-10)
(-8.3493e-05 2.41282e-06 9.11235e-10)
(-8.41569e-05 2.41026e-06 9.18493e-10)
(-8.48315e-05 2.40768e-06 9.25867e-10)
(-3.61189e-07 2.88443e-06 -0.000539768)
(-7.33848e-05 2.47415e-06 7.6887e-10)
(-7.38942e-05 2.47208e-06 7.74224e-10)
(-7.44106e-05 2.46999e-06 7.79652e-10)
(-7.49343e-05 2.46788e-06 7.85157e-10)
(-7.54655e-05 2.46576e-06 7.90748e-10)
(-7.60042e-05 2.46361e-06 7.96422e-10)
(-7.65508e-05 2.46145e-06 8.02168e-10)
(-7.71052e-05 2.45926e-06 8.07996e-10)
(-7.76677e-05 2.45706e-06 8.1391e-10)
(-7.82385e-05 2.45483e-06 8.19911e-10)
(-7.88176e-05 2.45259e-06 8.26001e-10)
(-7.94055e-05 2.45032e-06 8.32183e-10)
(-8.00023e-05 2.44804e-06 8.38458e-10)
(-8.06079e-05 2.44573e-06 8.44827e-10)
(-8.12229e-05 2.44341e-06 8.51295e-10)
(-8.18474e-05 2.44106e-06 8.57862e-10)
(-8.24814e-05 2.43869e-06 8.64534e-10)
(-8.31255e-05 2.4363e-06 8.71329e-10)
(-8.37796e-05 2.43389e-06 8.78211e-10)
(-8.44441e-05 2.43146e-06 8.85202e-10)
(-8.51193e-05 2.429e-06 8.92305e-10)
(-3.61465e-07 2.882e-06 -0.00053931)
(-7.36637e-05 2.4935e-06 7.40086e-10)
(-7.41738e-05 2.49154e-06 7.45236e-10)
(-7.46912e-05 2.48956e-06 7.50459e-10)
(-7.52157e-05 2.48757e-06 7.55755e-10)
(-7.57477e-05 2.48555e-06 7.61133e-10)
(-7.62873e-05 2.48352e-06 7.66595e-10)
(-7.68346e-05 2.48147e-06 7.72122e-10)
(-7.73898e-05 2.47941e-06 7.7773e-10)
(-7.79531e-05 2.47732e-06 7.83419e-10)
(-7.85247e-05 2.47522e-06 7.89193e-10)
(-7.91047e-05 2.4731e-06 7.95052e-10)
(-7.96933e-05 2.47095e-06 8.00998e-10)
(-8.02908e-05 2.46879e-06 8.07035e-10)
(-8.08973e-05 2.46661e-06 8.13163e-10)
(-8.1513e-05 2.46441e-06 8.19385e-10)
(-8.21381e-05 2.4622e-06 8.25702e-10)
(-8.2773e-05 2.45996e-06 8.32119e-10)
(-8.34177e-05 2.4577e-06 8.38657e-10)
(-8.40726e-05 2.45542e-06 8.4528e-10)
(-8.47378e-05 2.45313e-06 8.52006e-10)
(-8.54135e-05 2.45081e-06 8.58838e-10)
(-3.61741e-07 2.87958e-06 -0.000538852)
(-7.39473e-05 2.51321e-06 7.11378e-10)
(-7.44584e-05 2.51136e-06 7.16326e-10)
(-7.49766e-05 2.5095e-06 7.21344e-10)
(-7.55021e-05 2.50762e-06 7.26432e-10)
(-7.6035e-05 2.50573e-06 7.31598e-10)
(-7.65754e-05 2.50382e-06 7.36848e-10)
(-7.71236e-05 2.50189e-06 7.42158e-10)
(-7.76797e-05 2.49995e-06 7.47545e-10)
(-7.82439e-05 2.49799e-06 7.53011e-10)
(-7.88163e-05 2.49601e-06 7.58558e-10)
(-7.93972e-05 2.49401e-06 7.64187e-10)
(-7.99867e-05 2.492e-06 7.699e-10)
(-8.0585e-05 2.48997e-06 7.75699e-10)
(-8.11923e-05 2.48792e-06 7.81586e-10)
(-8.18089e-05 2.48586e-06 7.87563e-10)
(-8.24349e-05 2.48377e-06 7.93632e-10)
(-8.30705e-05 2.48167e-06 7.99796e-10)
(-8.37161e-05 2.47955e-06 8.06075e-10)
(-8.43717e-05 2.47742e-06 8.12442e-10)
(-8.50377e-05 2.47526e-06 8.18902e-10)
(-8.57143e-05 2.47309e-06 8.25466e-10)
(-3.62016e-07 2.87715e-06 -0.000538395)
(-7.42357e-05 2.53327e-06 6.82747e-10)
(-7.47477e-05 2.53155e-06 6.87493e-10)
(-7.52669e-05 2.52981e-06 6.92307e-10)
(-7.57933e-05 2.52805e-06 6.97188e-10)
(-7.63272e-05 2.52628e-06 7.02142e-10)
(-7.68686e-05 2.5245e-06 7.07181e-10)
(-7.74178e-05 2.5227e-06 7.12275e-10)
(-7.79748e-05 2.52088e-06 7.17443e-10)
(-7.854e-05 2.51905e-06 7.22686e-10)
(-7.91134e-05 2.5172e-06 7.28007e-10)
(-7.96952e-05 2.51534e-06 7.33406e-10)
(-8.02857e-05 2.51346e-06 7.38886e-10)
(-8.08849e-05 2.51157e-06 7.44449e-10)
(-8.14933e-05 2.50966e-06 7.50096e-10)
(-8.21107e-05 2.50773e-06 7.5583e-10)
(-8.27376e-05 2.50579e-06 7.61651e-10)
(-8.33742e-05 2.50384e-06 7.67563e-10)
(-8.40207e-05 2.50186e-06 7.73581e-10)
(-8.46772e-05 2.49987e-06 7.79696e-10)
(-8.53442e-05 2.49787e-06 7.85892e-10)
(-8.60216e-05 2.49584e-06 7.92188e-10)
(-3.6229e-07 2.87473e-06 -0.000537938)
(-7.4508e-05 2.55216e-06 6.5407e-10)
(-7.50209e-05 2.55054e-06 6.58615e-10)
(-7.55408e-05 2.5489e-06 6.63223e-10)
(-7.6068e-05 2.54726e-06 6.67896e-10)
(-7.66026e-05 2.54559e-06 6.72635e-10)
(-7.71448e-05 2.54392e-06 6.77442e-10)
(-7.76947e-05 2.54223e-06 6.82318e-10)
(-7.82525e-05 2.54052e-06 6.87265e-10)
(-7.88183e-05 2.5388e-06 6.92285e-10)
(-7.93925e-05 2.53707e-06 6.97386e-10)
(-7.99749e-05 2.53532e-06 7.02565e-10)
(-8.05661e-05 2.53356e-06 7.07811e-10)
(-8.11661e-05 2.53178e-06 7.13136e-10)
(-8.1775e-05 2.52999e-06 7.18542e-10)
(-8.23932e-05 2.52818e-06 7.2403e-10)
(-8.30207e-05 2.52636e-06 7.29603e-10)
(-8.3658e-05 2.52453e-06 7.35262e-10)
(-8.4305e-05 2.52268e-06 7.4101e-10)
(-8.49622e-05 2.52081e-06 7.46848e-10)
(-8.56297e-05 2.51893e-06 7.52779e-10)
(-8.63078e-05 2.51704e-06 7.58805e-10)
(-3.62587e-07 2.87231e-06 -0.000537481)
(-8.10791e-05 2.94733e-06 2.07851e-10)
(-8.16368e-05 2.94837e-06 2.09282e-10)
(-8.22023e-05 2.94944e-06 2.10733e-10)
(-8.27757e-05 2.95052e-06 2.12205e-10)
(-8.33572e-05 2.95164e-06 2.13697e-10)
(-8.39468e-05 2.95277e-06 2.1521e-10)
(-8.45449e-05 2.95393e-06 2.16745e-10)
(-8.51515e-05 2.95512e-06 2.18302e-10)
(-8.57669e-05 2.95634e-06 2.19882e-10)
(-8.63913e-05 2.95758e-06 2.21484e-10)
(-8.70248e-05 2.95885e-06 2.2311e-10)
(-8.76677e-05 2.96015e-06 2.2476e-10)
(-8.83202e-05 2.96148e-06 2.26435e-10)
(-8.89825e-05 2.96284e-06 2.28134e-10)
(-8.96547e-05 2.96423e-06 2.2986e-10)
(-9.03372e-05 2.96565e-06 2.31612e-10)
(-9.10301e-05 2.96711e-06 2.3339e-10)
(-9.17338e-05 2.9686e-06 2.35197e-10)
(-9.24485e-05 2.97013e-06 2.37031e-10)
(-9.31744e-05 2.9717e-06 2.38894e-10)
(-9.39117e-05 2.9733e-06 2.40787e-10)
(-3.70617e-07 2.87092e-06 -0.00053716)
)
;

boundaryField
{
    inlet
    {
        type            calculated;
        value           uniform (0 0 0);
    }
    outlet2
    {
        type            calculated;
        value           uniform (0 0 0);
    }
    outlet1
    {
        type            calculated;
        value           uniform (0 0 0);
    }
    wall
    {
        type            calculated;
        value           uniform (0 0 0);
    }
    symmetryBottom
    {
        type            symmetry;
    }
    symmetryZ0
    {
        type            symmetry;
    }
    symmetryZ05
    {
        type            symmetry;
    }
}


// ************************************************************************* //
