/*--------------------------------*- C++ -*----------------------------------*\
| =========                 |                                                 |
| \\      /  F ield         | OpenFOAM: The Open Source CFD Toolbox           |
|  \\    /   O peration     | Version:  2412                                  |
|   \\  /    A nd           | Website:  www.openfoam.com                      |
|    \\/     M anipulation  |                                                 |
\*---------------------------------------------------------------------------*/
FoamFile
{
    version     2.0;
    format      ascii;
    arch        "LSB;label=32;scalar=64";
    class       volVectorField;
    location    "9.13819e-07";
    object      rhoU_dof1;
}
// * * * * * * * * * * * * * * * * * * * * * * * * * * * * * * * * * * * * * //

dimensions      [0 0 0 0 0 0 0];

internalField   nonuniform List<vector> 
625
(
(0.0293429 3.8107e-07 2.82666e-06)
(-1.18215e-09 -8.61164e-14 2.41191e-06)
(-1.45104e-05 0.000139305 2.72828e-06)
(0.0293432 -1.38369e-05 2.82675e-06)
(-1.18214e-09 1.07152e-12 2.41201e-06)
(-2.78824e-06 -4.30709e-09 2.70545e-06)
(0.0293432 -1.38412e-05 2.8267e-06)
(-1.18215e-09 1.06962e-12 2.41195e-06)
(-6.71829e-06 3.91997e-07 2.70567e-06)
(0.0293432 -1.38412e-05 2.8267e-06)
(-1.18215e-09 1.06961e-12 2.41195e-06)
(-6.70517e-06 3.90678e-07 2.70567e-06)
(0.0293432 -1.38412e-05 2.8267e-06)
(-1.18215e-09 1.06961e-12 2.41195e-06)
(-6.7052e-06 3.90681e-07 2.70567e-06)
(0.0293432 -1.38412e-05 2.8267e-06)
(-1.18215e-09 1.06961e-12 2.41195e-06)
(-6.7052e-06 3.90681e-07 2.70567e-06)
(0.0293432 -1.38412e-05 2.8267e-06)
(-1.18215e-09 1.06961e-12 2.41195e-06)
(-6.7052e-06 3.90681e-07 2.70567e-06)
(0.0293432 -1.38412e-05 2.8267e-06)
(-1.18215e-09 1.06961e-12 2.41195e-06)
(-6.7052e-06 3.90681e-07 2.70567e-06)
(0.0293432 -1.38412e-05 2.8267e-06)
(-1.18215e-09 1.06961e-12 2.41195e-06)
(-6.7052e-06 3.90681e-07 2.70567e-06)
(0.0293432 -1.38412e-05 2.8267e-06)
(-1.18215e-09 1.06961e-12 2.41195e-06)
(-6.7052e-06 3.90681e-07 2.70567e-06)
(0.0293432 -1.38412e-05 2.8267e-06)
(-1.18215e-09 1.06961e-12 2.41195e-06)
(-6.7052e-06 3.90681e-07 2.70567e-06)
(0.0293432 -1.38412e-05 2.8267e-06)
(-1.18215e-09 1.06961e-12 2.41195e-06)
(-6.7052e-06 3.90681e-07 2.70567e-06)
(0.0293432 -1.38412e-05 2.8267e-06)
(-1.18215e-09 1.06961e-12 2.41195e-06)
(-6.7052e-06 3.90681e-07 2.70567e-06)
(0.0293432 -1.38412e-05 2.8267e-06)
(-1.18215e-09 1.06961e-12 2.41195e-06)
(-6.7052e-06 3.90681e-07 2.70567e-06)
(0.0293432 -1.38412e-05 2.8267e-06)
(-1.18215e-09 1.06961e-12 2.41195e-06)
(-6.7052e-06 3.90681e-07 2.70567e-06)
(0.0293432 -1.38412e-05 2.8267e-06)
(-1.18215e-09 1.06961e-12 2.41195e-06)
(-6.7052e-06 3.90681e-07 2.70567e-06)
(0.0293432 -1.38412e-05 2.8267e-06)
(-1.18215e-09 1.06961e-12 2.41195e-06)
(-6.7052e-06 3.90681e-07 2.70567e-06)
(0.0293432 -1.38412e-05 2.8267e-06)
(-1.18215e-09 1.06961e-12 2.41195e-06)
(-6.7052e-06 3.90681e-07 2.70567e-06)
(0.0293432 -1.38412e-05 2.8267e-06)
(-1.18215e-09 1.06961e-12 2.41195e-06)
(-6.7052e-06 3.90681e-07 2.70567e-06)
(0.0293432 -1.38412e-05 2.8267e-06)
(-1.18215e-09 1.06961e-12 2.41195e-06)
(-6.7052e-06 3.90681e-07 2.70567e-06)
(0.0293432 -1.38412e-05 2.8267e-06)
(-1.18215e-09 1.06961e-12 2.41195e-06)
(-6.7052e-06 3.90681e-07 2.70567e-06)
(0.0293432 -1.38412e-05 2.8267e-06)
(-1.18215e-09 1.06961e-12 2.41195e-06)
(-6.7052e-06 3.90681e-07 2.70567e-06)
(0.0293432 -1.38412e-05 2.8267e-06)
(-1.18215e-09 1.06961e-12 2.41195e-06)
(-6.70496e-06 3.90658e-07 2.70566e-06)
(0.0293432 -1.3842e-05 2.8267e-06)
(-1.18215e-09 1.06977e-12 2.41195e-06)
(-6.82399e-06 4.02121e-07 2.71638e-06)
(0.02935 -1.42497e-05 2.82733e-06)
(-1.18265e-09 1.1614e-12 2.41241e-06)
(-5.59397e-07 3.3599e-08 2.40917e-06)
(-7.24423e-05 -4.10973e-09 2.73105e-06)
(-7.29407e-05 -4.18485e-09 2.73262e-06)
(-7.3446e-05 -4.26195e-09 2.73421e-06)
(-7.39584e-05 -4.34111e-09 2.73583e-06)
(-7.4478e-05 -4.42239e-09 2.73747e-06)
(-7.5005e-05 -4.50587e-09 2.73914e-06)
(-7.55395e-05 -4.59163e-09 2.74084e-06)
(-7.60816e-05 -4.67974e-09 2.74256e-06)
(-7.66315e-05 -4.7703e-09 2.74432e-06)
(-7.71895e-05 -4.86339e-09 2.7461e-06)
(-7.77557e-05 -4.95912e-09 2.74792e-06)
(-7.83302e-05 -5.05755e-09 2.74976e-06)
(-7.89133e-05 -5.15879e-09 2.75164e-06)
(-7.95051e-05 -5.26299e-09 2.75355e-06)
(-8.01059e-05 -5.37019e-09 2.75549e-06)
(-8.07158e-05 -5.48057e-09 2.75746e-06)
(-8.13351e-05 -5.59419e-09 2.75948e-06)
(-8.1964e-05 -5.71125e-09 2.76152e-06)
(-8.26026e-05 -5.83181e-09 2.76361e-06)
(-8.32513e-05 -5.95606e-09 2.76573e-06)
(-8.39102e-05 -6.08409e-09 2.7679e-06)
(-0.00509418 0.000193655 2.96227e-06)
(-7.39808e-05 4.75922e-08 2.58109e-06)
(-7.45006e-05 4.82559e-08 2.58142e-06)
(-7.50279e-05 4.89337e-08 2.58176e-06)
(-7.55626e-05 4.96258e-08 2.5821e-06)
(-7.6105e-05 5.03326e-08 2.58245e-06)
(-7.66553e-05 5.10547e-08 2.5828e-06)
(-7.72135e-05 5.17925e-08 2.58316e-06)
(-7.778e-05 5.25463e-08 2.58352e-06)
(-7.83548e-05 5.33168e-08 2.58389e-06)
(-7.89382e-05 5.41043e-08 2.58426e-06)
(-7.95303e-05 5.49093e-08 2.58464e-06)
(-8.01314e-05 5.57325e-08 2.58502e-06)
(-8.07417e-05 5.65743e-08 2.58541e-06)
(-8.13613e-05 5.74353e-08 2.58581e-06)
(-8.19905e-05 5.83161e-08 2.58621e-06)
(-8.26294e-05 5.92174e-08 2.58662e-06)
(-8.32785e-05 6.01397e-08 2.58703e-06)
(-8.39378e-05 6.10837e-08 2.58745e-06)
(-8.46076e-05 6.20501e-08 2.58788e-06)
(-8.52882e-05 6.30396e-08 2.58831e-06)
(-8.59799e-05 6.4053e-08 2.58875e-06)
(0.000148656 1.19463e-05 2.75594e-06)
(-7.39264e-05 4.76765e-08 2.57959e-06)
(-7.44455e-05 4.83423e-08 2.57992e-06)
(-7.49719e-05 4.9022e-08 2.58025e-06)
(-7.55059e-05 4.97162e-08 2.58058e-06)
(-7.60475e-05 5.04253e-08 2.58092e-06)
(-7.65969e-05 5.11496e-08 2.58126e-06)
(-7.71543e-05 5.18897e-08 2.58161e-06)
(-7.77199e-05 5.2646e-08 2.58197e-06)
(-7.82938e-05 5.34189e-08 2.58233e-06)
(-7.88763e-05 5.42089e-08 2.58269e-06)
(-7.94675e-05 5.50166e-08 2.58306e-06)
(-8.00677e-05 5.58425e-08 2.58344e-06)
(-8.06769e-05 5.66871e-08 2.58382e-06)
(-8.12956e-05 5.75511e-08 2.58421e-06)
(-8.19238e-05 5.84349e-08 2.5846e-06)
(-8.25617e-05 5.93393e-08 2.585e-06)
(-8.32096e-05 6.02648e-08 2.58541e-06)
(-8.38679e-05 6.12121e-08 2.58582e-06)
(-8.45366e-05 6.2182e-08 2.58624e-06)
(-8.52161e-05 6.31751e-08 2.58666e-06)
(-8.59065e-05 6.41921e-08 2.58709e-06)
(7.85915e-05 3.80476e-07 2.76147e-06)
(-7.38725e-05 4.76426e-08 2.57772e-06)
(-7.43908e-05 4.83076e-08 2.57803e-06)
(-7.49165e-05 4.89866e-08 2.57835e-06)
(-7.54497e-05 4.968e-08 2.57867e-06)
(-7.59905e-05 5.03882e-08 2.579e-06)
(-7.6539e-05 5.11117e-08 2.57933e-06)
(-7.70957e-05 5.18509e-08 2.57966e-06)
(-7.76604e-05 5.26062e-08 2.58e-06)
(-7.82335e-05 5.33782e-08 2.58035e-06)
(-7.8815e-05 5.41672e-08 2.5807e-06)
(-7.94053e-05 5.4974e-08 2.58105e-06)
(-8.00046e-05 5.57988e-08 2.58141e-06)
(-8.06128e-05 5.66424e-08 2.58178e-06)
(-8.12305e-05 5.75052e-08 2.58215e-06)
(-8.18577e-05 5.83879e-08 2.58253e-06)
(-8.24946e-05 5.92911e-08 2.58291e-06)
(-8.31415e-05 6.02154e-08 2.5833e-06)
(-8.37987e-05 6.11615e-08 2.5837e-06)
(-8.44663e-05 6.21301e-08 2.5841e-06)
(-8.51447e-05 6.31219e-08 2.5845e-06)
(-8.5834e-05 6.41376e-08 2.58492e-06)
(7.91953e-05 5.30299e-07 2.76346e-06)
(-7.38186e-05 4.76146e-08 2.57586e-06)
(-7.43362e-05 4.8279e-08 2.57616e-06)
(-7.48611e-05 4.89573e-08 2.57646e-06)
(-7.53935e-05 4.96501e-08 2.57677e-06)
(-7.59335e-05 5.03577e-08 2.57708e-06)
(-7.64813e-05 5.10806e-08 2.5774e-06)
(-7.7037e-05 5.18191e-08 2.57772e-06)
(-7.76009e-05 5.25737e-08 2.57804e-06)
(-7.81731e-05 5.3345e-08 2.57837e-06)
(-7.87538e-05 5.41333e-08 2.57871e-06)
(-7.93432e-05 5.49392e-08 2.57905e-06)
(-7.99414e-05 5.57633e-08 2.5794e-06)
(-8.05489e-05 5.66061e-08 2.57975e-06)
(-8.11655e-05 5.74681e-08 2.5801e-06)
(-8.17917e-05 5.835e-08 2.58046e-06)
(-8.24276e-05 5.92523e-08 2.58083e-06)
(-8.30735e-05 6.01757e-08 2.5812e-06)
(-8.37295e-05 6.11208e-08 2.58158e-06)
(-8.43961e-05 6.20884e-08 2.58197e-06)
(-8.50733e-05 6.30792e-08 2.58236e-06)
(-8.57615e-05 6.40939e-08 2.58275e-06)
(7.97979e-05 5.43217e-07 2.76548e-06)
(-7.37648e-05 4.75866e-08 2.574e-06)
(-7.42816e-05 4.82504e-08 2.57428e-06)
(-7.48058e-05 4.89282e-08 2.57457e-06)
(-7.53373e-05 4.96203e-08 2.57487e-06)
(-7.58766e-05 5.03273e-08 2.57517e-06)
(-7.64235e-05 5.10494e-08 2.57547e-06)
(-7.69784e-05 5.17873e-08 2.57578e-06)
(-7.75414e-05 5.25412e-08 2.57609e-06)
(-7.81128e-05 5.33118e-08 2.5764e-06)
(-7.86926e-05 5.40994e-08 2.57672e-06)
(-7.92811e-05 5.49046e-08 2.57705e-06)
(-7.98784e-05 5.57279e-08 2.57738e-06)
(-8.04848e-05 5.65698e-08 2.57772e-06)
(-8.11006e-05 5.7431e-08 2.57806e-06)
(-8.17257e-05 5.8312e-08 2.5784e-06)
(-8.23606e-05 5.92134e-08 2.57875e-06)
(-8.30054e-05 6.01359e-08 2.57911e-06)
(-8.36605e-05 6.10801e-08 2.57947e-06)
(-8.43259e-05 6.20468e-08 2.57984e-06)
(-8.5002e-05 6.30365e-08 2.58021e-06)
(-8.5689e-05 6.40502e-08 2.58059e-06)
(8.04129e-05 5.5703e-07 2.76749e-06)
(-7.3711e-05 4.75586e-08 2.57214e-06)
(-7.42271e-05 4.82218e-08 2.57241e-06)
(-7.47504e-05 4.8899e-08 2.57269e-06)
(-7.52813e-05 4.95905e-08 2.57297e-06)
(-7.58197e-05 5.02968e-08 2.57325e-06)
(-7.63658e-05 5.10183e-08 2.57354e-06)
(-7.69199e-05 5.17555e-08 2.57383e-06)
(-7.74821e-05 5.25088e-08 2.57413e-06)
(-7.80525e-05 5.32786e-08 2.57443e-06)
(-7.86314e-05 5.40654e-08 2.57474e-06)
(-7.9219e-05 5.48699e-08 2.57505e-06)
(-7.98154e-05 5.56924e-08 2.57537e-06)
(-8.04209e-05 5.65335e-08 2.57569e-06)
(-8.10356e-05 5.73939e-08 2.57601e-06)
(-8.16598e-05 5.8274e-08 2.57634e-06)
(-8.22937e-05 5.91746e-08 2.57668e-06)
(-8.29374e-05 6.00962e-08 2.57702e-06)
(-8.35914e-05 6.10395e-08 2.57736e-06)
(-8.42557e-05 6.20051e-08 2.57771e-06)
(-8.49307e-05 6.29939e-08 2.57807e-06)
(-8.56166e-05 6.40065e-08 2.57843e-06)
(8.10436e-05 5.70869e-07 2.76951e-06)
(-7.36572e-05 4.75306e-08 2.57028e-06)
(-7.41725e-05 4.81932e-08 2.57054e-06)
(-7.46952e-05 4.88698e-08 2.5708e-06)
(-7.52252e-05 4.95607e-08 2.57107e-06)
(-7.57628e-05 5.02664e-08 2.57134e-06)
(-7.63082e-05 5.09873e-08 2.57161e-06)
(-7.68613e-05 5.17237e-08 2.57189e-06)
(-7.74227e-05 5.24763e-08 2.57218e-06)
(-7.79923e-05 5.32454e-08 2.57246e-06)
(-7.85703e-05 5.40315e-08 2.57276e-06)
(-7.9157e-05 5.48352e-08 2.57305e-06)
(-7.97524e-05 5.56569e-08 2.57335e-06)
(-8.03569e-05 5.64973e-08 2.57366e-06)
(-8.09707e-05 5.73568e-08 2.57397e-06)
(-8.15939e-05 5.82361e-08 2.57428e-06)
(-8.22267e-05 5.91358e-08 2.5746e-06)
(-8.28695e-05 6.00565e-08 2.57492e-06)
(-8.35224e-05 6.09988e-08 2.57525e-06)
(-8.41856e-05 6.19635e-08 2.57559e-06)
(-8.48595e-05 6.29513e-08 2.57593e-06)
(-8.55442e-05 6.39628e-08 2.57627e-06)
(8.169e-05 5.84736e-07 2.77153e-06)
(-7.36034e-05 4.75026e-08 2.56842e-06)
(-7.41181e-05 4.81646e-08 2.56867e-06)
(-7.46399e-05 4.88406e-08 2.56892e-06)
(-7.51691e-05 4.95309e-08 2.56917e-06)
(-7.5706e-05 5.0236e-08 2.56943e-06)
(-7.62504e-05 5.09562e-08 2.56969e-06)
(-7.68029e-05 5.1692e-08 2.56995e-06)
(-7.73633e-05 5.24438e-08 2.57022e-06)
(-7.7932e-05 5.32122e-08 2.5705e-06)
(-7.85092e-05 5.39976e-08 2.57077e-06)
(-7.90949e-05 5.48005e-08 2.57105e-06)
(-7.96895e-05 5.56215e-08 2.57134e-06)
(-8.02931e-05 5.64611e-08 2.57163e-06)
(-8.09058e-05 5.73197e-08 2.57192e-06)
(-8.1528e-05 5.81982e-08 2.57222e-06)
(-8.21599e-05 5.9097e-08 2.57252e-06)
(-8.28016e-05 6.00167e-08 2.57283e-06)
(-8.34534e-05 6.09582e-08 2.57315e-06)
(-8.41155e-05 6.19219e-08 2.57346e-06)
(-8.47883e-05 6.29087e-08 2.57379e-06)
(-8.54719e-05 6.39192e-08 2.57411e-06)
(8.23522e-05 5.98632e-07 2.77355e-06)
(-7.35497e-05 4.74767e-08 2.56656e-06)
(-7.40635e-05 4.81382e-08 2.56679e-06)
(-7.45847e-05 4.88136e-08 2.56703e-06)
(-7.51131e-05 4.95033e-08 2.56727e-06)
(-7.56491e-05 5.02077e-08 2.56752e-06)
(-7.61929e-05 5.09273e-08 2.56776e-06)
(-7.67444e-05 5.16624e-08 2.56802e-06)
(-7.7304e-05 5.24136e-08 2.56827e-06)
(-7.78719e-05 5.31813e-08 2.56853e-06)
(-7.84481e-05 5.3966e-08 2.56879e-06)
(-7.9033e-05 5.47681e-08 2.56906e-06)
(-7.96266e-05 5.55883e-08 2.56933e-06)
(-8.02292e-05 5.64271e-08 2.5696e-06)
(-8.0841e-05 5.7285e-08 2.56988e-06)
(-8.14622e-05 5.81626e-08 2.57016e-06)
(-8.2093e-05 5.90605e-08 2.57045e-06)
(-8.27337e-05 5.99794e-08 2.57074e-06)
(-8.33844e-05 6.09199e-08 2.57104e-06)
(-8.40455e-05 6.18827e-08 2.57134e-06)
(-8.47172e-05 6.28685e-08 2.57164e-06)
(-8.53996e-05 6.38781e-08 2.57196e-06)
(8.30172e-05 6.11697e-07 2.77554e-06)
(-7.34951e-05 4.75075e-08 2.56467e-06)
(-7.40082e-05 4.81692e-08 2.56489e-06)
(-7.45284e-05 4.88448e-08 2.56512e-06)
(-7.50561e-05 4.95348e-08 2.56534e-06)
(-7.55913e-05 5.02394e-08 2.56557e-06)
(-7.61342e-05 5.09592e-08 2.56581e-06)
(-7.66849e-05 5.16946e-08 2.56604e-06)
(-7.72437e-05 5.2446e-08 2.56628e-06)
(-7.78106e-05 5.32139e-08 2.56653e-06)
(-7.8386e-05 5.39988e-08 2.56678e-06)
(-7.89699e-05 5.48012e-08 2.56703e-06)
(-7.95626e-05 5.56216e-08 2.56728e-06)
(-8.01642e-05 5.64606e-08 2.56754e-06)
(-8.0775e-05 5.73187e-08 2.5678e-06)
(-8.13952e-05 5.81965e-08 2.56807e-06)
(-8.2025e-05 5.90946e-08 2.56834e-06)
(-8.26646e-05 6.00137e-08 2.56862e-06)
(-8.33143e-05 6.09544e-08 2.5689e-06)
(-8.39743e-05 6.19174e-08 2.56918e-06)
(-8.46447e-05 6.29034e-08 2.56947e-06)
(-8.53261e-05 6.39131e-08 2.56976e-06)
(8.32437e-05 5.96028e-07 2.77594e-06)
(-7.34404e-05 4.75382e-08 2.56278e-06)
(-7.39527e-05 4.82001e-08 2.56299e-06)
(-7.44723e-05 4.8876e-08 2.5632e-06)
(-7.49991e-05 4.95661e-08 2.56341e-06)
(-7.55335e-05 5.0271e-08 2.56363e-06)
(-7.60756e-05 5.0991e-08 2.56385e-06)
(-7.66255e-05 5.17266e-08 2.56407e-06)
(-7.71833e-05 5.24782e-08 2.5643e-06)
(-7.77495e-05 5.32464e-08 2.56453e-06)
(-7.83239e-05 5.40315e-08 2.56476e-06)
(-7.89069e-05 5.48341e-08 2.565e-06)
(-7.94986e-05 5.56548e-08 2.56524e-06)
(-8.00993e-05 5.6494e-08 2.56548e-06)
(-8.07092e-05 5.73523e-08 2.56573e-06)
(-8.13283e-05 5.82303e-08 2.56598e-06)
(-8.19571e-05 5.91287e-08 2.56623e-06)
(-8.25956e-05 6.0048e-08 2.56649e-06)
(-8.32442e-05 6.09889e-08 2.56675e-06)
(-8.3903e-05 6.19521e-08 2.56702e-06)
(-8.45725e-05 6.29383e-08 2.56729e-06)
(-8.52525e-05 6.39483e-08 2.56757e-06)
(8.34409e-05 5.77435e-07 2.77462e-06)
(-7.33858e-05 4.75688e-08 2.56089e-06)
(-7.38974e-05 4.8231e-08 2.56109e-06)
(-7.44161e-05 4.8907e-08 2.56129e-06)
(-7.49422e-05 4.95974e-08 2.56149e-06)
(-7.54758e-05 5.03025e-08 2.56169e-06)
(-7.60171e-05 5.10227e-08 2.56189e-06)
(-7.6566e-05 5.17586e-08 2.5621e-06)
(-7.71231e-05 5.25104e-08 2.56231e-06)
(-7.76883e-05 5.32788e-08 2.56253e-06)
(-7.82619e-05 5.40641e-08 2.56275e-06)
(-7.88439e-05 5.4867e-08 2.56297e-06)
(-7.94347e-05 5.56878e-08 2.56319e-06)
(-8.00345e-05 5.65273e-08 2.56342e-06)
(-8.06432e-05 5.73858e-08 2.56365e-06)
(-8.12615e-05 5.82641e-08 2.56389e-06)
(-8.18891e-05 5.91626e-08 2.56413e-06)
(-8.25267e-05 6.00822e-08 2.56437e-06)
(-8.31742e-05 6.10233e-08 2.56461e-06)
(-8.38319e-05 6.19867e-08 2.56486e-06)
(-8.45001e-05 6.29731e-08 2.56512e-06)
(-8.51792e-05 6.39833e-08 2.56538e-06)
(8.36443e-05 5.58318e-07 2.77328e-06)
(-7.33313e-05 4.75993e-08 2.55901e-06)
(-7.38421e-05 4.82617e-08 2.55919e-06)
(-7.436e-05 4.8938e-08 2.55937e-06)
(-7.48853e-05 4.96286e-08 2.55956e-06)
(-7.54181e-05 5.03339e-08 2.55975e-06)
(-7.59585e-05 5.10544e-08 2.55994e-06)
(-7.65067e-05 5.17904e-08 2.56013e-06)
(-7.70629e-05 5.25425e-08 2.56033e-06)
(-7.76272e-05 5.33111e-08 2.56053e-06)
(-7.81998e-05 5.40967e-08 2.56073e-06)
(-7.8781e-05 5.48997e-08 2.56094e-06)
(-7.93708e-05 5.57208e-08 2.56115e-06)
(-7.99696e-05 5.65605e-08 2.56136e-06)
(-8.05774e-05 5.74192e-08 2.56158e-06)
(-8.11946e-05 5.82977e-08 2.5618e-06)
(-8.18213e-05 5.91965e-08 2.56202e-06)
(-8.24577e-05 6.01162e-08 2.56225e-06)
(-8.31042e-05 6.10575e-08 2.56248e-06)
(-8.37608e-05 6.20212e-08 2.56271e-06)
(-8.44279e-05 6.30078e-08 2.56294e-06)
(-8.51057e-05 6.40181e-08 2.56319e-06)
(8.38543e-05 5.3871e-07 2.77194e-06)
(-7.32767e-05 4.76298e-08 2.55712e-06)
(-7.37868e-05 4.82924e-08 2.55729e-06)
(-7.4304e-05 4.89689e-08 2.55746e-06)
(-7.48285e-05 4.96597e-08 2.55763e-06)
(-7.53604e-05 5.03653e-08 2.55781e-06)
(-7.59e-05 5.10859e-08 2.55799e-06)
(-7.64474e-05 5.18222e-08 2.55817e-06)
(-7.70027e-05 5.25745e-08 2.55835e-06)
(-7.75661e-05 5.33433e-08 2.55854e-06)
(-7.81378e-05 5.41291e-08 2.55872e-06)
(-7.87181e-05 5.49324e-08 2.55892e-06)
(-7.9307e-05 5.57537e-08 2.55911e-06)
(-7.99048e-05 5.65935e-08 2.55931e-06)
(-8.05117e-05 5.74525e-08 2.55951e-06)
(-8.11278e-05 5.83312e-08 2.55971e-06)
(-8.17535e-05 5.92302e-08 2.55992e-06)
(-8.23889e-05 6.01501e-08 2.56013e-06)
(-8.30342e-05 6.10917e-08 2.56034e-06)
(-8.36898e-05 6.20555e-08 2.56055e-06)
(-8.43557e-05 6.30423e-08 2.56077e-06)
(-8.50324e-05 6.40528e-08 2.561e-06)
(8.4071e-05 5.18613e-07 2.7706e-06)
(-7.32222e-05 4.76602e-08 2.55524e-06)
(-7.37316e-05 4.8323e-08 2.55539e-06)
(-7.42479e-05 4.89997e-08 2.55555e-06)
(-7.47717e-05 4.96907e-08 2.55571e-06)
(-7.53028e-05 5.03965e-08 2.55587e-06)
(-7.58416e-05 5.11174e-08 2.55603e-06)
(-7.6388e-05 5.18539e-08 2.5562e-06)
(-7.69425e-05 5.26064e-08 2.55637e-06)
(-7.7505e-05 5.33754e-08 2.55654e-06)
(-7.80759e-05 5.41614e-08 2.55671e-06)
(-7.86552e-05 5.49649e-08 2.55689e-06)
(-7.92432e-05 5.57864e-08 2.55707e-06)
(-7.98401e-05 5.66265e-08 2.55725e-06)
(-8.04459e-05 5.74857e-08 2.55744e-06)
(-8.10611e-05 5.83646e-08 2.55762e-06)
(-8.16857e-05 5.92638e-08 2.55781e-06)
(-8.23201e-05 6.01839e-08 2.55801e-06)
(-8.29643e-05 6.11257e-08 2.5582e-06)
(-8.36188e-05 6.20897e-08 2.5584e-06)
(-8.42836e-05 6.30767e-08 2.5586e-06)
(-8.49591e-05 6.40874e-08 2.55881e-06)
(8.42942e-05 4.9803e-07 2.76926e-06)
(-7.31678e-05 4.76905e-08 2.55335e-06)
(-7.36763e-05 4.83535e-08 2.5535e-06)
(-7.4192e-05 4.90304e-08 2.55364e-06)
(-7.47148e-05 4.97217e-08 2.55379e-06)
(-7.52452e-05 5.04276e-08 2.55393e-06)
(-7.57831e-05 5.11488e-08 2.55408e-06)
(-7.63288e-05 5.18855e-08 2.55424e-06)
(-7.68824e-05 5.26382e-08 2.55439e-06)
(-7.74441e-05 5.34074e-08 2.55455e-06)
(-7.8014e-05 5.41936e-08 2.55471e-06)
(-7.85924e-05 5.49974e-08 2.55487e-06)
(-7.91795e-05 5.58191e-08 2.55503e-06)
(-7.97753e-05 5.66593e-08 2.5552e-06)
(-8.03803e-05 5.75187e-08 2.55537e-06)
(-8.09944e-05 5.83978e-08 2.55554e-06)
(-8.1618e-05 5.92972e-08 2.55571e-06)
(-8.22513e-05 6.02176e-08 2.55589e-06)
(-8.28945e-05 6.11595e-08 2.55607e-06)
(-8.35478e-05 6.21237e-08 2.55625e-06)
(-8.42116e-05 6.31109e-08 2.55644e-06)
(-8.48858e-05 6.41218e-08 2.55662e-06)
(8.4524e-05 4.76963e-07 2.76791e-06)
(-7.31133e-05 4.77206e-08 2.55147e-06)
(-7.36211e-05 4.83839e-08 2.5516e-06)
(-7.4136e-05 4.9061e-08 2.55173e-06)
(-7.46581e-05 4.97525e-08 2.55186e-06)
(-7.51877e-05 5.04587e-08 2.552e-06)
(-7.57247e-05 5.118e-08 2.55213e-06)
(-7.62696e-05 5.19169e-08 2.55227e-06)
(-7.68223e-05 5.26699e-08 2.55241e-06)
(-7.73831e-05 5.34393e-08 2.55256e-06)
(-7.79522e-05 5.42257e-08 2.5527e-06)
(-7.85297e-05 5.50296e-08 2.55285e-06)
(-7.91157e-05 5.58516e-08 2.55299e-06)
(-7.97107e-05 5.6692e-08 2.55315e-06)
(-8.03146e-05 5.75516e-08 2.5533e-06)
(-8.09277e-05 5.84309e-08 2.55345e-06)
(-8.15503e-05 5.93305e-08 2.55361e-06)
(-8.21825e-05 6.02511e-08 2.55377e-06)
(-8.28247e-05 6.11932e-08 2.55394e-06)
(-8.34769e-05 6.21576e-08 2.5541e-06)
(-8.41395e-05 6.3145e-08 2.55427e-06)
(-8.48127e-05 6.41561e-08 2.55444e-06)
(8.47604e-05 4.55413e-07 2.76657e-06)
(-7.30589e-05 4.77507e-08 2.54959e-06)
(-7.35659e-05 4.84141e-08 2.54971e-06)
(-7.40801e-05 4.90915e-08 2.54982e-06)
(-7.46014e-05 4.97832e-08 2.54994e-06)
(-7.51301e-05 5.04896e-08 2.55006e-06)
(-7.56664e-05 5.12111e-08 2.55019e-06)
(-7.62104e-05 5.19482e-08 2.55031e-06)
(-7.67623e-05 5.27014e-08 2.55044e-06)
(-7.73222e-05 5.3471e-08 2.55056e-06)
(-7.78903e-05 5.42577e-08 2.55069e-06)
(-7.84669e-05 5.50618e-08 2.55083e-06)
(-7.90521e-05 5.58839e-08 2.55096e-06)
(-7.9646e-05 5.67246e-08 2.5511e-06)
(-8.0249e-05 5.75844e-08 2.55123e-06)
(-8.08611e-05 5.84639e-08 2.55137e-06)
(-8.14827e-05 5.93637e-08 2.55151e-06)
(-8.21139e-05 6.02844e-08 2.55166e-06)
(-8.27549e-05 6.12267e-08 2.5518e-06)
(-8.34061e-05 6.21913e-08 2.55195e-06)
(-8.40675e-05 6.31789e-08 2.5521e-06)
(-8.47395e-05 6.41902e-08 2.55226e-06)
(8.50033e-05 4.33383e-07 2.76522e-06)
(-7.30045e-05 4.77806e-08 2.54771e-06)
(-7.35109e-05 4.84443e-08 2.54781e-06)
(-7.40241e-05 4.91219e-08 2.54792e-06)
(-7.45447e-05 4.98137e-08 2.54802e-06)
(-7.50727e-05 5.05204e-08 2.54813e-06)
(-7.56081e-05 5.12421e-08 2.54824e-06)
(-7.61513e-05 5.19794e-08 2.54835e-06)
(-7.67023e-05 5.27328e-08 2.54846e-06)
(-7.72613e-05 5.35026e-08 2.54857e-06)
(-7.78286e-05 5.42895e-08 2.54869e-06)
(-7.84042e-05 5.50938e-08 2.54881e-06)
(-7.89884e-05 5.59161e-08 2.54893e-06)
(-7.95815e-05 5.6757e-08 2.54905e-06)
(-8.01834e-05 5.7617e-08 2.54917e-06)
(-8.07945e-05 5.84967e-08 2.54929e-06)
(-8.14151e-05 5.93967e-08 2.54942e-06)
(-8.20452e-05 6.03176e-08 2.54955e-06)
(-8.26853e-05 6.12601e-08 2.54968e-06)
(-8.33352e-05 6.22249e-08 2.54981e-06)
(-8.39956e-05 6.32126e-08 2.54994e-06)
(-8.46665e-05 6.42241e-08 2.55008e-06)
(8.52527e-05 4.10877e-07 2.76387e-06)
(-7.29502e-05 4.78105e-08 2.54583e-06)
(-7.34557e-05 4.84743e-08 2.54592e-06)
(-7.39683e-05 4.91521e-08 2.54601e-06)
(-7.44881e-05 4.98442e-08 2.54611e-06)
(-7.50152e-05 5.0551e-08 2.5462e-06)
(-7.55499e-05 5.1273e-08 2.54629e-06)
(-7.60921e-05 5.20105e-08 2.54639e-06)
(-7.66423e-05 5.2764e-08 2.54649e-06)
(-7.72005e-05 5.35341e-08 2.54659e-06)
(-7.77668e-05 5.43211e-08 2.54669e-06)
(-7.83416e-05 5.51256e-08 2.54679e-06)
(-7.89249e-05 5.59482e-08 2.54689e-06)
(-7.95169e-05 5.67892e-08 2.547e-06)
(-8.01179e-05 5.76494e-08 2.5471e-06)
(-8.07281e-05 5.85293e-08 2.54721e-06)
(-8.13475e-05 5.94295e-08 2.54732e-06)
(-8.19767e-05 6.03506e-08 2.54743e-06)
(-8.26155e-05 6.12933e-08 2.54755e-06)
(-8.32645e-05 6.22582e-08 2.54766e-06)
(-8.39237e-05 6.32461e-08 2.54778e-06)
(-8.45934e-05 6.42577e-08 2.5479e-06)
(8.55086e-05 3.87896e-07 2.76252e-06)
(-7.28959e-05 4.78402e-08 2.54396e-06)
(-7.34007e-05 4.85042e-08 2.54403e-06)
(-7.39125e-05 4.91822e-08 2.54411e-06)
(-7.44315e-05 4.98745e-08 2.54419e-06)
(-7.49578e-05 5.05815e-08 2.54427e-06)
(-7.54916e-05 5.13036e-08 2.54435e-06)
(-7.60331e-05 5.20414e-08 2.54443e-06)
(-7.65824e-05 5.27951e-08 2.54452e-06)
(-7.71397e-05 5.35654e-08 2.5446e-06)
(-7.77052e-05 5.43526e-08 2.54469e-06)
(-7.8279e-05 5.51573e-08 2.54477e-06)
(-7.88613e-05 5.598e-08 2.54486e-06)
(-7.94524e-05 5.68213e-08 2.54495e-06)
(-8.00524e-05 5.76817e-08 2.54504e-06)
(-8.06616e-05 5.85617e-08 2.54513e-06)
(-8.12801e-05 5.94621e-08 2.54523e-06)
(-8.19081e-05 6.03834e-08 2.54532e-06)
(-8.25459e-05 6.13262e-08 2.54542e-06)
(-8.31938e-05 6.22914e-08 2.54552e-06)
(-8.38519e-05 6.32794e-08 2.54562e-06)
(-8.45205e-05 6.42912e-08 2.54572e-06)
(8.57711e-05 3.64444e-07 2.76117e-06)
(-7.28417e-05 4.78697e-08 2.54208e-06)
(-7.33456e-05 4.85339e-08 2.54214e-06)
(-7.38567e-05 4.92121e-08 2.54221e-06)
(-7.43749e-05 4.99046e-08 2.54227e-06)
(-7.49004e-05 5.06118e-08 2.54234e-06)
(-7.54334e-05 5.13342e-08 2.54241e-06)
(-7.59741e-05 5.20721e-08 2.54248e-06)
(-7.65225e-05 5.2826e-08 2.54254e-06)
(-7.7079e-05 5.35965e-08 2.54261e-06)
(-7.76435e-05 5.43839e-08 2.54269e-06)
(-7.82164e-05 5.51888e-08 2.54276e-06)
(-7.87978e-05 5.60117e-08 2.54283e-06)
(-7.93879e-05 5.68532e-08 2.54291e-06)
(-7.9987e-05 5.77137e-08 2.54298e-06)
(-8.05951e-05 5.8594e-08 2.54306e-06)
(-8.12126e-05 5.94945e-08 2.54314e-06)
(-8.18396e-05 6.0416e-08 2.54322e-06)
(-8.24764e-05 6.1359e-08 2.5433e-06)
(-8.31231e-05 6.23243e-08 2.54338e-06)
(-8.37801e-05 6.33126e-08 2.54346e-06)
(-8.44475e-05 6.43245e-08 2.54355e-06)
(8.604e-05 3.40519e-07 2.75981e-06)
(-7.27874e-05 4.79014e-08 2.54021e-06)
(-7.32907e-05 4.85659e-08 2.54026e-06)
(-7.38009e-05 4.92443e-08 2.54031e-06)
(-7.43184e-05 4.9937e-08 2.54036e-06)
(-7.48431e-05 5.06445e-08 2.54041e-06)
(-7.53753e-05 5.13671e-08 2.54047e-06)
(-7.59151e-05 5.21053e-08 2.54052e-06)
(-7.64627e-05 5.28595e-08 2.54058e-06)
(-7.70182e-05 5.36301e-08 2.54063e-06)
(-7.7582e-05 5.44178e-08 2.54069e-06)
(-7.81539e-05 5.5223e-08 2.54075e-06)
(-7.87344e-05 5.60461e-08 2.5408e-06)
(-7.93236e-05 5.68879e-08 2.54086e-06)
(-7.99216e-05 5.77486e-08 2.54092e-06)
(-8.05288e-05 5.86291e-08 2.54098e-06)
(-8.11452e-05 5.95299e-08 2.54105e-06)
(-8.17713e-05 6.04516e-08 2.54111e-06)
(-8.24069e-05 6.13949e-08 2.54117e-06)
(-8.30526e-05 6.23604e-08 2.54124e-06)
(-8.37084e-05 6.33489e-08 2.5413e-06)
(-8.43748e-05 6.43611e-08 2.54137e-06)
(8.62888e-05 3.18073e-07 2.75842e-06)
(-7.27483e-05 4.88416e-08 2.53885e-06)
(-7.3251e-05 4.9519e-08 2.53889e-06)
(-7.37608e-05 5.02107e-08 2.53893e-06)
(-7.42776e-05 5.09169e-08 2.53897e-06)
(-7.48017e-05 5.16381e-08 2.53901e-06)
(-7.53333e-05 5.23748e-08 2.53906e-06)
(-7.58725e-05 5.31273e-08 2.5391e-06)
(-7.64195e-05 5.38962e-08 2.53915e-06)
(-7.69744e-05 5.46819e-08 2.53919e-06)
(-7.75375e-05 5.54849e-08 2.53924e-06)
(-7.81088e-05 5.63057e-08 2.53929e-06)
(-7.86886e-05 5.71449e-08 2.53933e-06)
(-7.92771e-05 5.8003e-08 2.53938e-06)
(-7.98745e-05 5.88805e-08 2.53943e-06)
(-8.04809e-05 5.97781e-08 2.53948e-06)
(-8.10967e-05 6.06964e-08 2.53953e-06)
(-8.17218e-05 6.16361e-08 2.53958e-06)
(-8.23568e-05 6.25977e-08 2.53963e-06)
(-8.30017e-05 6.3582e-08 2.53969e-06)
(-8.36567e-05 6.45897e-08 2.53974e-06)
(-8.43222e-05 6.56215e-08 2.5398e-06)
(9.35485e-05 -1.10455e-07 2.7816e-06)
)
;

boundaryField
{
    inlet
    {
        type            calculated;
        value           uniform (0 0 0);
    }
    outlet2
    {
        type            calculated;
        value           uniform (0 0 0);
    }
    outlet1
    {
        type            calculated;
        value           uniform (0 0 0);
    }
    wall
    {
        type            calculated;
        value           uniform (0 0 0);
    }
    symmetryBottom
    {
        type            symmetry;
    }
    symmetryZ0
    {
        type            symmetry;
    }
    symmetryZ05
    {
        type            symmetry;
    }
}


// ************************************************************************* //
