/*--------------------------------*- C++ -*----------------------------------*\
| =========                 |                                                 |
| \\      /  F ield         | OpenFOAM: The Open Source CFD Toolbox           |
|  \\    /   O peration     | Version:  2412                                  |
|   \\  /    A nd           | Website:  www.openfoam.com                      |
|    \\/     M anipulation  |                                                 |
\*---------------------------------------------------------------------------*/
FoamFile
{
    version     2.0;
    format      ascii;
    arch        "LSB;label=32;scalar=64";
    class       volVectorField;
    location    "9.13819e-07";
    object      U;
}
// * * * * * * * * * * * * * * * * * * * * * * * * * * * * * * * * * * * * * //

dimensions      [0 0 0 0 0 0 0];

internalField   nonuniform List<vector> 
625
(
(2635.95 -0.0110678 0.0202479)
(2634.08 -0.0158762 0.027401)
(2634.08 -0.0158958 0.00029249)
(2635.95 -1.87129 0.0202497)
(2634.08 -1.93718 0.027403)
(2634.08 -1.93721 -4.30794e-05)
(2635.95 -1.86599 0.0202499)
(2634.08 -1.93179 0.027403)
(2634.08 -1.93181 -3.73993e-05)
(2635.95 -1.86601 0.0202499)
(2634.08 -1.93181 0.027403)
(2634.08 -1.93183 -3.74169e-05)
(2635.95 -1.86601 0.0202499)
(2634.08 -1.93181 0.027403)
(2634.08 -1.93183 -3.74168e-05)
(2635.95 -1.86601 0.0202499)
(2634.08 -1.93181 0.027403)
(2634.08 -1.93183 -3.74168e-05)
(2635.95 -1.86601 0.0202499)
(2634.08 -1.93181 0.027403)
(2634.08 -1.93183 -3.74168e-05)
(2635.95 -1.86601 0.0202499)
(2634.08 -1.93181 0.027403)
(2634.08 -1.93183 -3.74168e-05)
(2635.95 -1.86601 0.0202499)
(2634.08 -1.93181 0.027403)
(2634.08 -1.93183 -3.74168e-05)
(2635.95 -1.86601 0.0202499)
(2634.08 -1.93181 0.027403)
(2634.08 -1.93183 -3.74168e-05)
(2635.95 -1.86601 0.0202499)
(2634.08 -1.93181 0.027403)
(2634.08 -1.93183 -3.74168e-05)
(2635.95 -1.86601 0.0202499)
(2634.08 -1.93181 0.027403)
(2634.08 -1.93183 -3.74168e-05)
(2635.95 -1.86601 0.0202499)
(2634.08 -1.93181 0.027403)
(2634.08 -1.93183 -3.74168e-05)
(2635.95 -1.86601 0.0202499)
(2634.08 -1.93181 0.027403)
(2634.08 -1.93183 -3.74168e-05)
(2635.95 -1.86601 0.0202499)
(2634.08 -1.93181 0.027403)
(2634.08 -1.93183 -3.74168e-05)
(2635.95 -1.86601 0.0202499)
(2634.08 -1.93181 0.027403)
(2634.08 -1.93183 -3.74168e-05)
(2635.95 -1.86601 0.0202499)
(2634.08 -1.93181 0.027403)
(2634.08 -1.93183 -3.74168e-05)
(2635.95 -1.86601 0.0202499)
(2634.08 -1.93181 0.027403)
(2634.08 -1.93183 -3.74168e-05)
(2635.95 -1.86601 0.0202499)
(2634.08 -1.93181 0.027403)
(2634.08 -1.93183 -3.74168e-05)
(2635.95 -1.86601 0.0202499)
(2634.08 -1.93181 0.027403)
(2634.08 -1.93183 -3.74168e-05)
(2635.95 -1.86601 0.0202499)
(2634.08 -1.93181 0.027403)
(2634.08 -1.93183 -3.74168e-05)
(2635.95 -1.86601 0.0202499)
(2634.08 -1.93181 0.027403)
(2634.08 -1.93183 -3.74169e-05)
(2635.95 -1.86601 0.0202499)
(2634.08 -1.93181 0.027403)
(2634.08 -1.93183 -3.72449e-05)
(2635.95 -1.866 0.0202499)
(2634.08 -1.93183 0.027403)
(2634.08 -1.93199 -0.000137089)
(2635.95 -1.86493 0.0202638)
(2634.08 -1.92616 0.0274178)
(2634.08 -1.92633 0.0272321)
(2625.6 0.327507 0.0292558)
(2625.52 0.332468 0.0292724)
(2625.44 0.337541 0.0292893)
(2625.36 0.342729 0.0293064)
(2625.27 0.348036 0.0293239)
(2625.19 0.353465 0.0293416)
(2625.1 0.359021 0.0293597)
(2625.01 0.364707 0.029378)
(2624.92 0.370528 0.0293967)
(2624.82 0.376487 0.0294157)
(2624.73 0.382589 0.029435)
(2624.63 0.388838 0.0294547)
(2624.54 0.39524 0.0294747)
(2624.44 0.4018 0.0294951)
(2624.33 0.408521 0.0295159)
(2624.23 0.415411 0.029537)
(2624.12 0.422474 0.0295586)
(2624.01 0.429717 0.0295805)
(2623.9 0.437145 0.0296029)
(2623.79 0.444765 0.0296256)
(2623.68 0.452583 0.0296489)
(2623.69 0.454945 0.00215769)
(2634.86 -1.82957 0.0274448)
(2634.86 -1.84129 0.0274456)
(2634.87 -1.85315 0.0274465)
(2634.87 -1.86517 0.0274473)
(2634.87 -1.87734 0.0274482)
(2634.87 -1.88966 0.0274491)
(2634.88 -1.90215 0.02745)
(2634.88 -1.9148 0.0274509)
(2634.88 -1.92761 0.0274518)
(2634.89 -1.94059 0.0274527)
(2634.89 -1.95374 0.0274537)
(2634.89 -1.96707 0.0274546)
(2634.9 -1.98058 0.0274555)
(2634.9 -1.99427 0.0274565)
(2634.9 -2.00815 0.0274575)
(2634.91 -2.02221 0.0274585)
(2634.91 -2.03647 0.0274595)
(2634.91 -2.05093 0.0274605)
(2634.92 -2.06559 0.0274615)
(2634.92 -2.08045 0.0274625)
(2634.93 -2.09552 0.0274636)
(2634.94 -2.09551 -0.000239224)
(2634.8 -1.9394 0.0274769)
(2634.8 -1.95278 0.0274781)
(2634.8 -1.96634 0.0274794)
(2634.8 -1.9801 0.0274807)
(2634.8 -1.99405 0.027482)
(2634.81 -2.0082 0.0274833)
(2634.81 -2.02255 0.0274847)
(2634.81 -2.03711 0.027486)
(2634.81 -2.05187 0.0274874)
(2634.82 -2.06686 0.0274888)
(2634.82 -2.08206 0.0274903)
(2634.82 -2.09749 0.0274917)
(2634.82 -2.11315 0.0274932)
(2634.82 -2.12905 0.0274947)
(2634.83 -2.14519 0.0274962)
(2634.83 -2.16157 0.0274977)
(2634.83 -2.17821 0.0274993)
(2634.83 -2.19511 0.0275009)
(2634.84 -2.21227 0.0275025)
(2634.84 -2.2297 0.0275041)
(2634.84 -2.24741 0.0275058)
(2634.86 -2.2473 -0.000171266)
(2634.78 -1.93856 0.0274824)
(2634.79 -1.95192 0.0274837)
(2634.79 -1.96546 0.027485)
(2634.79 -1.9792 0.0274863)
(2634.79 -1.99312 0.0274877)
(2634.79 -2.00725 0.0274891)
(2634.8 -2.02158 0.0274904)
(2634.8 -2.03611 0.0274918)
(2634.8 -2.05085 0.0274933)
(2634.8 -2.06581 0.0274947)
(2634.8 -2.08099 0.0274962)
(2634.81 -2.09639 0.0274977)
(2634.81 -2.11202 0.0274992)
(2634.81 -2.12789 0.0275007)
(2634.81 -2.144 0.0275023)
(2634.81 -2.16035 0.0275039)
(2634.82 -2.17695 0.0275055)
(2634.82 -2.19381 0.0275071)
(2634.82 -2.21094 0.0275088)
(2634.82 -2.22833 0.0275105)
(2634.83 -2.246 0.0275122)
(2634.84 -2.24589 -0.000167897)
(2634.77 -1.93884 0.0274881)
(2634.77 -1.95221 0.0274894)
(2634.77 -1.96576 0.0274907)
(2634.78 -1.97949 0.0274921)
(2634.78 -1.99343 0.0274935)
(2634.78 -2.00756 0.0274949)
(2634.78 -2.02189 0.0274963)
(2634.78 -2.03642 0.0274978)
(2634.79 -2.05117 0.0274993)
(2634.79 -2.06613 0.0275008)
(2634.79 -2.08132 0.0275023)
(2634.79 -2.09672 0.0275038)
(2634.79 -2.11236 0.0275054)
(2634.8 -2.12823 0.0275069)
(2634.8 -2.14435 0.0275086)
(2634.8 -2.1607 0.0275102)
(2634.8 -2.17731 0.0275118)
(2634.8 -2.19418 0.0275135)
(2634.81 -2.21131 0.0275152)
(2634.81 -2.22871 0.027517)
(2634.81 -2.24639 0.0275187)
(2634.83 -2.24627 -0.000164485)
(2634.76 -1.93912 0.0274937)
(2634.76 -1.95249 0.0274951)
(2634.76 -1.96604 0.0274965)
(2634.76 -1.97978 0.0274979)
(2634.76 -1.99372 0.0274993)
(2634.77 -2.00785 0.0275008)
(2634.77 -2.02219 0.0275023)
(2634.77 -2.03673 0.0275037)
(2634.77 -2.05148 0.0275053)
(2634.77 -2.06645 0.0275068)
(2634.78 -2.08164 0.0275084)
(2634.78 -2.09705 0.0275099)
(2634.78 -2.11269 0.0275115)
(2634.78 -2.12857 0.0275132)
(2634.78 -2.14469 0.0275148)
(2634.79 -2.16105 0.0275165)
(2634.79 -2.17766 0.0275182)
(2634.79 -2.19454 0.0275199)
(2634.79 -2.21167 0.0275217)
(2634.79 -2.22908 0.0275235)
(2634.8 -2.24676 0.0275253)
(2634.81 -2.24664 -0.000161071)
(2634.74 -1.9394 0.0274994)
(2634.75 -1.95277 0.0275008)
(2634.75 -1.96633 0.0275022)
(2634.75 -1.98007 0.0275037)
(2634.75 -1.99401 0.0275052)
(2634.75 -2.00815 0.0275067)
(2634.75 -2.02249 0.0275082)
(2634.76 -2.03704 0.0275097)
(2634.76 -2.05179 0.0275113)
(2634.76 -2.06677 0.0275128)
(2634.76 -2.08196 0.0275144)
(2634.76 -2.09737 0.0275161)
(2634.77 -2.11302 0.0275177)
(2634.77 -2.1289 0.0275194)
(2634.77 -2.14503 0.0275211)
(2634.77 -2.16139 0.0275228)
(2634.77 -2.17802 0.0275246)
(2634.78 -2.19489 0.0275264)
(2634.78 -2.21204 0.0275282)
(2634.78 -2.22945 0.02753)
(2634.78 -2.24713 0.0275319)
(2634.8 -2.24701 -0.000157658)
(2634.73 -1.93968 0.0275051)
(2634.73 -1.95305 0.0275065)
(2634.73 -1.96661 0.027508)
(2634.74 -1.98036 0.0275095)
(2634.74 -1.99431 0.027511)
(2634.74 -2.00845 0.0275125)
(2634.74 -2.02279 0.0275141)
(2634.74 -2.03734 0.0275157)
(2634.74 -2.05211 0.0275173)
(2634.75 -2.06708 0.0275189)
(2634.75 -2.08228 0.0275205)
(2634.75 -2.0977 0.0275222)
(2634.75 -2.11335 0.0275239)
(2634.75 -2.12924 0.0275256)
(2634.75 -2.14537 0.0275274)
(2634.76 -2.16174 0.0275291)
(2634.76 -2.17837 0.0275309)
(2634.76 -2.19525 0.0275328)
(2634.76 -2.2124 0.0275346)
(2634.76 -2.22981 0.0275365)
(2634.77 -2.24751 0.0275384)
(2634.78 -2.24738 -0.000154246)
(2634.72 -1.93996 0.0275107)
(2634.72 -1.95334 0.0275122)
(2634.72 -1.9669 0.0275137)
(2634.72 -1.98066 0.0275153)
(2634.72 -1.9946 0.0275168)
(2634.73 -2.00875 0.0275184)
(2634.73 -2.0231 0.02752)
(2634.73 -2.03765 0.0275216)
(2634.73 -2.05242 0.0275233)
(2634.73 -2.0674 0.0275249)
(2634.73 -2.0826 0.0275266)
(2634.74 -2.09803 0.0275283)
(2634.74 -2.11368 0.0275301)
(2634.74 -2.12957 0.0275319)
(2634.74 -2.14571 0.0275336)
(2634.74 -2.16209 0.0275355)
(2634.74 -2.17872 0.0275373)
(2634.75 -2.19561 0.0275392)
(2634.75 -2.21276 0.0275411)
(2634.75 -2.23018 0.0275431)
(2634.75 -2.24788 0.027545)
(2634.77 -2.24775 -0.000150837)
(2634.7 -1.94023 0.0275164)
(2634.71 -1.95361 0.0275179)
(2634.71 -1.96718 0.0275194)
(2634.71 -1.98094 0.027521)
(2634.71 -1.99489 0.0275226)
(2634.71 -2.00904 0.0275242)
(2634.71 -2.02339 0.0275259)
(2634.71 -2.03795 0.0275275)
(2634.72 -2.05272 0.0275292)
(2634.72 -2.0677 0.0275309)
(2634.72 -2.08291 0.0275327)
(2634.72 -2.09834 0.0275344)
(2634.72 -2.114 0.0275362)
(2634.72 -2.1299 0.027538)
(2634.73 -2.14604 0.0275399)
(2634.73 -2.16242 0.0275418)
(2634.73 -2.17906 0.0275437)
(2634.73 -2.19595 0.0275456)
(2634.73 -2.21311 0.0275475)
(2634.73 -2.23054 0.0275495)
(2634.74 -2.24824 0.0275516)
(2634.75 -2.24811 -0.000146982)
(2634.69 -1.94018 0.0275211)
(2634.69 -1.95357 0.0275226)
(2634.69 -1.96714 0.0275242)
(2634.7 -1.9809 0.0275258)
(2634.7 -1.99485 0.0275274)
(2634.7 -2.009 0.0275291)
(2634.7 -2.02336 0.0275308)
(2634.7 -2.03792 0.0275325)
(2634.7 -2.05269 0.0275342)
(2634.7 -2.06768 0.0275359)
(2634.71 -2.08288 0.0275377)
(2634.71 -2.09832 0.0275395)
(2634.71 -2.11398 0.0275413)
(2634.71 -2.12988 0.0275432)
(2634.71 -2.14602 0.0275451)
(2634.71 -2.16241 0.027547)
(2634.71 -2.17905 0.0275489)
(2634.72 -2.19594 0.0275509)
(2634.72 -2.2131 0.0275529)
(2634.72 -2.23053 0.0275549)
(2634.72 -2.24824 0.027557)
(2634.74 -2.24808 -0.00012229)
(2634.68 -1.94014 0.0275258)
(2634.68 -1.95352 0.0275274)
(2634.68 -1.96709 0.027529)
(2634.68 -1.98086 0.0275306)
(2634.68 -1.99481 0.0275323)
(2634.68 -2.00897 0.027534)
(2634.69 -2.02332 0.0275357)
(2634.69 -2.03788 0.0275374)
(2634.69 -2.05266 0.0275392)
(2634.69 -2.06765 0.0275409)
(2634.69 -2.08286 0.0275428)
(2634.69 -2.09829 0.0275446)
(2634.69 -2.11396 0.0275465)
(2634.7 -2.12986 0.0275484)
(2634.7 -2.146 0.0275503)
(2634.7 -2.16239 0.0275522)
(2634.7 -2.17903 0.0275542)
(2634.7 -2.19593 0.0275562)
(2634.7 -2.21309 0.0275583)
(2634.7 -2.23053 0.0275603)
(2634.71 -2.24824 0.0275625)
(2634.72 -2.24808 -0.000120176)
(2634.67 -1.94009 0.0275305)
(2634.67 -1.95347 0.0275321)
(2634.67 -1.96705 0.0275338)
(2634.67 -1.98081 0.0275354)
(2634.67 -1.99477 0.0275371)
(2634.67 -2.00892 0.0275388)
(2634.67 -2.02328 0.0275406)
(2634.67 -2.03784 0.0275424)
(2634.67 -2.05262 0.0275441)
(2634.68 -2.06761 0.027546)
(2634.68 -2.08282 0.0275478)
(2634.68 -2.09826 0.0275497)
(2634.68 -2.11393 0.0275516)
(2634.68 -2.12983 0.0275535)
(2634.68 -2.14598 0.0275555)
(2634.68 -2.16237 0.0275575)
(2634.68 -2.17901 0.0275595)
(2634.69 -2.19591 0.0275616)
(2634.69 -2.21308 0.0275636)
(2634.69 -2.23052 0.0275658)
(2634.69 -2.24823 0.0275679)
(2634.71 -2.24807 -0.000118295)
(2634.65 -1.94003 0.0275352)
(2634.65 -1.95342 0.0275368)
(2634.65 -1.96699 0.0275385)
(2634.66 -1.98076 0.0275402)
(2634.66 -1.99472 0.027542)
(2634.66 -2.00888 0.0275437)
(2634.66 -2.02323 0.0275455)
(2634.66 -2.0378 0.0275473)
(2634.66 -2.05258 0.0275491)
(2634.66 -2.06757 0.027551)
(2634.66 -2.08278 0.0275529)
(2634.66 -2.09822 0.0275548)
(2634.67 -2.11389 0.0275567)
(2634.67 -2.1298 0.0275587)
(2634.67 -2.14595 0.0275607)
(2634.67 -2.16234 0.0275627)
(2634.67 -2.17899 0.0275648)
(2634.67 -2.19589 0.0275669)
(2634.67 -2.21306 0.027569)
(2634.67 -2.2305 0.0275712)
(2634.68 -2.24821 0.0275734)
(2634.69 -2.24806 -0.000116419)
(2634.64 -1.93997 0.0275399)
(2634.64 -1.95336 0.0275416)
(2634.64 -1.96694 0.0275433)
(2634.64 -1.9807 0.027545)
(2634.64 -1.99466 0.0275468)
(2634.64 -2.00882 0.0275486)
(2634.64 -2.02318 0.0275504)
(2634.65 -2.03775 0.0275523)
(2634.65 -2.05253 0.0275541)
(2634.65 -2.06752 0.027556)
(2634.65 -2.08274 0.0275579)
(2634.65 -2.09818 0.0275599)
(2634.65 -2.11385 0.0275619)
(2634.65 -2.12976 0.0275639)
(2634.65 -2.14591 0.0275659)
(2634.65 -2.16231 0.027568)
(2634.66 -2.17895 0.0275701)
(2634.66 -2.19586 0.0275722)
(2634.66 -2.21303 0.0275744)
(2634.66 -2.23047 0.0275766)
(2634.66 -2.24819 0.0275788)
(2634.68 -2.24804 -0.000114548)
(2634.63 -1.93991 0.0275446)
(2634.63 -1.9533 0.0275463)
(2634.63 -1.96688 0.0275481)
(2634.63 -1.98064 0.0275499)
(2634.63 -1.9946 0.0275517)
(2634.63 -2.00876 0.0275535)
(2634.63 -2.02313 0.0275553)
(2634.63 -2.0377 0.0275572)
(2634.63 -2.05248 0.0275591)
(2634.63 -2.06747 0.027561)
(2634.63 -2.08269 0.027563)
(2634.64 -2.09813 0.027565)
(2634.64 -2.11381 0.027567)
(2634.64 -2.12972 0.0275691)
(2634.64 -2.14587 0.0275711)
(2634.64 -2.16227 0.0275732)
(2634.64 -2.17892 0.0275754)
(2634.64 -2.19582 0.0275776)
(2634.64 -2.213 0.0275798)
(2634.64 -2.23044 0.027582)
(2634.64 -2.24816 0.0275843)
(2634.66 -2.24801 -0.000112682)
(2634.61 -1.93984 0.0275493)
(2634.61 -1.95323 0.0275511)
(2634.61 -1.96681 0.0275529)
(2634.62 -1.98058 0.0275547)
(2634.62 -1.99454 0.0275565)
(2634.62 -2.0087 0.0275584)
(2634.62 -2.02306 0.0275602)
(2634.62 -2.03764 0.0275622)
(2634.62 -2.05242 0.0275641)
(2634.62 -2.06742 0.0275661)
(2634.62 -2.08263 0.0275681)
(2634.62 -2.09808 0.0275701)
(2634.62 -2.11376 0.0275721)
(2634.62 -2.12967 0.0275742)
(2634.62 -2.14582 0.0275764)
(2634.63 -2.16222 0.0275785)
(2634.63 -2.17887 0.0275807)
(2634.63 -2.19578 0.0275829)
(2634.63 -2.21296 0.0275852)
(2634.63 -2.2304 0.0275875)
(2634.63 -2.24813 0.0275898)
(2634.64 -2.24797 -0.000110821)
(2634.6 -1.93976 0.027554)
(2634.6 -1.95316 0.0275558)
(2634.6 -1.96674 0.0275576)
(2634.6 -1.98051 0.0275595)
(2634.6 -1.99447 0.0275614)
(2634.6 -2.00863 0.0275632)
(2634.6 -2.023 0.0275652)
(2634.6 -2.03757 0.0275671)
(2634.61 -2.05235 0.0275691)
(2634.61 -2.06735 0.0275711)
(2634.61 -2.08257 0.0275731)
(2634.61 -2.09802 0.0275752)
(2634.61 -2.1137 0.0275773)
(2634.61 -2.12961 0.0275794)
(2634.61 -2.14577 0.0275816)
(2634.61 -2.16217 0.0275838)
(2634.61 -2.17882 0.027586)
(2634.61 -2.19573 0.0275883)
(2634.61 -2.21291 0.0275905)
(2634.61 -2.23036 0.0275929)
(2634.61 -2.24809 0.0275952)
(2634.63 -2.24793 -0.000108964)
(2634.59 -1.93968 0.0275588)
(2634.59 -1.95308 0.0275606)
(2634.59 -1.96666 0.0275624)
(2634.59 -1.98043 0.0275643)
(2634.59 -1.9944 0.0275662)
(2634.59 -2.00856 0.0275681)
(2634.59 -2.02293 0.0275701)
(2634.59 -2.0375 0.0275721)
(2634.59 -2.05229 0.0275741)
(2634.59 -2.06729 0.0275761)
(2634.59 -2.08251 0.0275782)
(2634.59 -2.09796 0.0275803)
(2634.59 -2.11364 0.0275824)
(2634.59 -2.12955 0.0275846)
(2634.6 -2.14571 0.0275868)
(2634.6 -2.16211 0.027589)
(2634.6 -2.17877 0.0275913)
(2634.6 -2.19568 0.0275936)
(2634.6 -2.21286 0.0275959)
(2634.6 -2.23031 0.0275983)
(2634.6 -2.24804 0.0276007)
(2634.61 -2.24789 -0.000107113)
(2634.57 -1.9396 0.0275635)
(2634.57 -1.953 0.0275653)
(2634.57 -1.96658 0.0275672)
(2634.58 -1.98035 0.0275691)
(2634.58 -1.99432 0.0275711)
(2634.58 -2.00848 0.027573)
(2634.58 -2.02285 0.027575)
(2634.58 -2.03742 0.027577)
(2634.58 -2.05221 0.0275791)
(2634.58 -2.06721 0.0275812)
(2634.58 -2.08244 0.0275833)
(2634.58 -2.09789 0.0275854)
(2634.58 -2.11357 0.0275876)
(2634.58 -2.12948 0.0275898)
(2634.58 -2.14564 0.027592)
(2634.58 -2.16205 0.0275943)
(2634.58 -2.1787 0.0275966)
(2634.58 -2.19562 0.0275989)
(2634.58 -2.2128 0.0276013)
(2634.58 -2.23025 0.0276037)
(2634.58 -2.24798 0.0276062)
(2634.6 -2.24784 -0.000105266)
(2634.56 -1.93951 0.0275682)
(2634.56 -1.95291 0.0275701)
(2634.56 -1.96649 0.027572)
(2634.56 -1.98026 0.0275739)
(2634.56 -1.99423 0.0275759)
(2634.56 -2.0084 0.0275779)
(2634.56 -2.02277 0.0275799)
(2634.56 -2.03734 0.027582)
(2634.56 -2.05213 0.0275841)
(2634.56 -2.06714 0.0275862)
(2634.56 -2.08236 0.0275883)
(2634.56 -2.09781 0.0275905)
(2634.57 -2.11349 0.0275927)
(2634.57 -2.12941 0.027595)
(2634.57 -2.14557 0.0275972)
(2634.57 -2.16198 0.0275996)
(2634.57 -2.17864 0.0276019)
(2634.57 -2.19556 0.0276043)
(2634.57 -2.21274 0.0276067)
(2634.57 -2.23019 0.0276092)
(2634.57 -2.24792 0.0276117)
(2634.58 -2.24778 -0.000103425)
(2634.55 -1.93942 0.0275729)
(2634.55 -1.95282 0.0275748)
(2634.55 -1.9664 0.0275768)
(2634.55 -1.98018 0.0275788)
(2634.55 -1.99414 0.0275808)
(2634.55 -2.00831 0.0275828)
(2634.55 -2.02268 0.0275849)
(2634.55 -2.03726 0.0275869)
(2634.55 -2.05205 0.0275891)
(2634.55 -2.06705 0.0275912)
(2634.55 -2.08228 0.0275934)
(2634.55 -2.09773 0.0275956)
(2634.55 -2.11341 0.0275979)
(2634.55 -2.12933 0.0276001)
(2634.55 -2.14549 0.0276025)
(2634.55 -2.1619 0.0276048)
(2634.55 -2.17856 0.0276072)
(2634.55 -2.19548 0.0276096)
(2634.55 -2.21267 0.0276121)
(2634.55 -2.23013 0.0276146)
(2634.55 -2.24786 0.0276171)
(2634.57 -2.24771 -0.000101588)
(2634.53 -1.93932 0.0275776)
(2634.53 -1.95272 0.0275796)
(2634.53 -1.9663 0.0275816)
(2634.53 -1.98008 0.0275836)
(2634.54 -1.99405 0.0275856)
(2634.54 -2.00822 0.0275877)
(2634.54 -2.02259 0.0275898)
(2634.54 -2.03717 0.0275919)
(2634.54 -2.05196 0.0275941)
(2634.54 -2.06696 0.0275962)
(2634.54 -2.08219 0.0275985)
(2634.54 -2.09765 0.0276007)
(2634.54 -2.11333 0.027603)
(2634.54 -2.12925 0.0276053)
(2634.54 -2.14541 0.0276077)
(2634.54 -2.16182 0.0276101)
(2634.54 -2.17849 0.0276125)
(2634.54 -2.19541 0.027615)
(2634.54 -2.21259 0.0276175)
(2634.54 -2.23005 0.02762)
(2634.54 -2.24779 0.0276226)
(2634.55 -2.24764 -9.97572e-05)
(2634.52 -1.93924 0.0275824)
(2634.52 -1.95264 0.0275844)
(2634.52 -1.96623 0.0275864)
(2634.52 -1.98 0.0275884)
(2634.52 -1.99397 0.0275905)
(2634.52 -2.00814 0.0275926)
(2634.52 -2.02252 0.0275947)
(2634.52 -2.03709 0.0275969)
(2634.52 -2.05189 0.0275991)
(2634.52 -2.06689 0.0276013)
(2634.52 -2.08212 0.0276036)
(2634.52 -2.09758 0.0276059)
(2634.52 -2.11326 0.0276082)
(2634.52 -2.12919 0.0276105)
(2634.52 -2.14535 0.0276129)
(2634.52 -2.16176 0.0276154)
(2634.52 -2.17843 0.0276178)
(2634.52 -2.19535 0.0276204)
(2634.52 -2.21254 0.0276229)
(2634.52 -2.23 0.0276255)
(2634.52 -2.24774 0.0276281)
(2634.54 -2.24759 -9.74472e-05)
(2634.51 -1.93419 0.0276021)
(2634.51 -1.94755 0.0276043)
(2634.51 -1.96111 0.0276064)
(2634.51 -1.97485 0.0276086)
(2634.51 -1.98879 0.0276108)
(2634.51 -2.00292 0.0276131)
(2634.51 -2.01726 0.0276153)
(2634.51 -2.03181 0.0276177)
(2634.51 -2.04656 0.02762)
(2634.51 -2.06153 0.0276224)
(2634.51 -2.07673 0.0276248)
(2634.51 -2.09214 0.0276273)
(2634.51 -2.10779 0.0276297)
(2634.51 -2.12368 0.0276323)
(2634.51 -2.1398 0.0276348)
(2634.51 -2.15618 0.0276374)
(2634.51 -2.1728 0.0276401)
(2634.51 -2.18968 0.0276428)
(2634.51 -2.20683 0.0276455)
(2634.51 -2.22425 0.0276483)
(2634.51 -2.24195 0.0276511)
(2634.52 -2.24219 -0.000428941)
)
;

boundaryField
{
    inlet
    {
        type            calculated;
        value           uniform (0 0 0);
    }
    outlet2
    {
        type            calculated;
        value           uniform (0 0 0);
    }
    outlet1
    {
        type            calculated;
        value           uniform (0 0 0);
    }
    wall
    {
        type            calculated;
        value           uniform (0 0 0);
    }
    symmetryBottom
    {
        type            symmetry;
    }
    symmetryZ0
    {
        type            symmetry;
    }
    symmetryZ05
    {
        type            symmetry;
    }
}


// ************************************************************************* //
