/*--------------------------------*- C++ -*----------------------------------*\
| =========                 |                                                 |
| \\      /  F ield         | OpenFOAM: The Open Source CFD Toolbox           |
|  \\    /   O peration     | Version:  2412                                  |
|   \\  /    A nd           | Website:  www.openfoam.com                      |
|    \\/     M anipulation  |                                                 |
\*---------------------------------------------------------------------------*/
FoamFile
{
    version     2.0;
    format      ascii;
    arch        "LSB;label=32;scalar=64";
    class       volScalarField;
    location    "5.9e-06";
    object      E_dof0;
}
// * * * * * * * * * * * * * * * * * * * * * * * * * * * * * * * * * * * * * //

dimensions      [0 0 0 0 0 0 0];

internalField   nonuniform List<scalar> 
84
(
97.0801
64.8374
67.9556
67.7609
67.7741
67.7777
67.7819
68.2381
102.458
68.5194
71.8596
71.7144
71.7894
71.8563
71.9258
72.4029
101.444
68.5636
71.3956
71.3008
71.3652
71.4254
71.4877
71.9626
101.034
67.8101
71.0883
70.9341
70.9973
71.0521
71.5249
100.843
67.3954
70.6752
70.5143
70.5706
70.6184
71.0891
100.277
67.0071
70.2629
70.0965
70.146
70.1867
70.6553
99.722
66.6295
69.8597
69.6882
69.731
69.7649
70.2314
98.9453
66.4994
69.4383
69.2925
69.3268
69.3543
69.8188
98.4991
65.9469
69.1213
68.9408
68.9717
69.434
98.0194
65.464
68.6241
68.4369
68.4601
68.9196
97.3716
65.1089
68.2308
68.0393
68.0557
68.5133
96.3277
64.8596
67.8266
67.6437
67.6531
67.6537
68.1097
)
;

boundaryField
{
    inlet
    {
        type            calculated;
        value           nonuniform List<scalar> 0();
    }
    outlet2
    {
        type            calculated;
        value           uniform 99.4306;
    }
    outlet1
    {
        type            calculated;
        value           uniform 99.4306;
    }
    wall
    {
        type            calculated;
        value           uniform 99.4306;
    }
    symmetryBottom
    {
        type            symmetry;
    }
    symmetryZ0
    {
        type            symmetry;
    }
    symmetryZ05
    {
        type            symmetry;
    }
    procBoundary0to1
    {
        type            processor;
        value           uniform 99.4306;
    }
}


// ************************************************************************* //
