/*--------------------------------*- C++ -*----------------------------------*\
| =========                 |                                                 |
| \\      /  F ield         | OpenFOAM: The Open Source CFD Toolbox           |
|  \\    /   O peration     | Version:  2412                                  |
|   \\  /    A nd           | Website:  www.openfoam.com                      |
|    \\/     M anipulation  |                                                 |
\*---------------------------------------------------------------------------*/
FoamFile
{
    version     2.0;
    format      ascii;
    arch        "LSB;label=32;scalar=64";
    class       volScalarField;
    location    "1.8e-06";
    object      E_dof0;
}
// * * * * * * * * * * * * * * * * * * * * * * * * * * * * * * * * * * * * * //

dimensions      [0 0 0 0 0 0 0];

internalField   nonuniform List<scalar> 
84
(
99.4314
72.667
74.4647
99.4346
72.6749
74.4719
99.4338
72.6742
74.4712
99.4338
72.6742
74.4712
99.4338
72.6742
74.4712
99.4338
72.6742
74.4712
99.4338
72.6742
74.4712
99.4338
72.6742
74.4712
99.4338
72.6742
74.4712
99.4338
72.6742
74.4712
99.4338
72.6742
74.4712
99.4339
72.672
74.4693
88.8326
88.4084
88.5667
90.3102
89.8624
90.0233
90.1591
89.7137
89.8738
90.0082
89.5651
89.5905
88.3638
89.8574
89.4167
89.4399
89.5938
89.7078
89.2695
89.2904
89.4441
89.5615
89.1254
89.1442
89.2977
89.4167
88.9829
88.9996
89.1527
89.287
88.8548
88.8696
88.8765
88.382
89.0935
88.6653
88.6773
88.6814
88.8355
88.9545
88.5283
88.5382
88.5405
88.7056
88.8084
88.3845
88.3923
88.5448
)
;

boundaryField
{
    inlet
    {
        type            calculated;
        value           uniform 99.4306;
    }
    outlet2
    {
        type            calculated;
        value           uniform 99.4306;
    }
    outlet1
    {
        type            calculated;
        value           nonuniform List<scalar> 0();
    }
    wall
    {
        type            calculated;
        value           uniform 99.4306;
    }
    symmetryBottom
    {
        type            symmetry;
    }
    symmetryZ0
    {
        type            symmetry;
    }
    symmetryZ05
    {
        type            symmetry;
    }
    procBoundary1to0
    {
        type            processor;
        value           uniform 99.4306;
    }
}


// ************************************************************************* //
