/*--------------------------------*- C++ -*----------------------------------*\
| =========                 |                                                 |
| \\      /  F ield         | OpenFOAM: The Open Source CFD Toolbox           |
|  \\    /   O peration     | Version:  2412                                  |
|   \\  /    A nd           | Website:  www.openfoam.com                      |
|    \\/     M anipulation  |                                                 |
\*---------------------------------------------------------------------------*/
FoamFile
{
    version     2.0;
    format      ascii;
    arch        "LSB;label=32;scalar=64";
    class       volScalarField;
    location    "1.8e-06";
    object      rho_dof0;
}
// * * * * * * * * * * * * * * * * * * * * * * * * * * * * * * * * * * * * * //

dimensions      [0 0 0 0 0 0 0];

internalField   nonuniform List<scalar> 
84
(
2.81087e-05
2.06248e-05
2.11218e-05
2.81096e-05
2.06271e-05
2.11239e-05
2.81094e-05
2.06269e-05
2.11237e-05
2.81094e-05
2.06269e-05
2.11237e-05
2.81094e-05
2.06269e-05
2.11237e-05
2.81094e-05
2.06269e-05
2.11237e-05
2.81094e-05
2.06269e-05
2.11237e-05
2.81094e-05
2.06269e-05
2.11237e-05
2.81094e-05
2.06269e-05
2.11237e-05
2.81094e-05
2.06269e-05
2.11237e-05
2.81094e-05
2.06269e-05
2.11237e-05
2.81094e-05
2.06262e-05
2.11232e-05
2.51483e-05
2.5031e-05
2.50752e-05
2.55575e-05
2.54337e-05
2.54786e-05
2.55152e-05
2.53921e-05
2.54368e-05
2.5473e-05
2.53505e-05
2.53576e-05
2.50145e-05
2.54308e-05
2.5309e-05
2.53154e-05
2.53585e-05
2.53887e-05
2.52676e-05
2.52734e-05
2.53163e-05
2.53467e-05
2.52262e-05
2.52314e-05
2.52743e-05
2.53048e-05
2.5185e-05
2.51896e-05
2.52324e-05
2.52625e-05
2.51433e-05
2.51472e-05
2.5149e-05
2.502e-05
2.52217e-05
2.51032e-05
2.51065e-05
2.51078e-05
2.51509e-05
2.51796e-05
2.50617e-05
2.50645e-05
2.50651e-05
2.51113e-05
2.5138e-05
2.50207e-05
2.50229e-05
2.50655e-05
)
;

boundaryField
{
    inlet
    {
        type            calculated;
        value           uniform 2.81085e-05;
    }
    outlet2
    {
        type            calculated;
        value           uniform 2.81085e-05;
    }
    outlet1
    {
        type            calculated;
        value           nonuniform List<scalar> 0();
    }
    wall
    {
        type            calculated;
        value           uniform 2.81085e-05;
    }
    symmetryBottom
    {
        type            symmetry;
    }
    symmetryZ0
    {
        type            symmetry;
    }
    symmetryZ05
    {
        type            symmetry;
    }
    procBoundary1to0
    {
        type            processor;
        value           uniform 2.81085e-05;
    }
}


// ************************************************************************* //
