/*--------------------------------*- C++ -*----------------------------------*\
| =========                 |                                                 |
| \\      /  F ield         | OpenFOAM: The Open Source CFD Toolbox           |
|  \\    /   O peration     | Version:  2412                                  |
|   \\  /    A nd           | Website:  www.openfoam.com                      |
|    \\/     M anipulation  |                                                 |
\*---------------------------------------------------------------------------*/
FoamFile
{
    version     2.0;
    format      ascii;
    arch        "LSB;label=32;scalar=64";
    class       volScalarField;
    location    "1.8e-06";
    object      T;
}
// * * * * * * * * * * * * * * * * * * * * * * * * * * * * * * * * * * * * * //

dimensions      [0 0 0 0 0 0 0];

internalField   nonuniform List<scalar> 
84
(
200.001
199.978
200.006
199.997
199.969
199.997
199.996
199.967
199.996
199.996
199.967
199.996
199.996
199.967
199.996
199.996
199.967
199.996
199.996
199.967
199.996
199.996
199.967
199.996
199.996
199.967
199.996
199.996
199.967
199.996
199.996
199.967
199.996
199.996
199.964
199.993
201.085
201.07
201.071
200.004
200
200
200.003
200
200
200.003
200
200
200.002
200.004
200
200
200
200.208
200.201
200.204
200.204
200.974
200.96
200.974
200.974
201.695
201.673
201.698
201.697
204.493
204.44
204.507
204.574
199.88
198.196
198.21
198.184
198.157
198.139
199.574
199.575
199.568
199.562
199.571
199.824
199.822
199.819
199.82
)
;

boundaryField
{
    inlet
    {
        type            calculated;
        value           uniform 0;
    }
    outlet2
    {
        type            calculated;
        value           uniform 0;
    }
    outlet1
    {
        type            calculated;
        value           nonuniform List<scalar> 0();
    }
    wall
    {
        type            calculated;
        value           uniform 0;
    }
    symmetryBottom
    {
        type            symmetry;
    }
    symmetryZ0
    {
        type            symmetry;
    }
    symmetryZ05
    {
        type            symmetry;
    }
    procBoundary1to0
    {
        type            processor;
        value           uniform 0;
    }
}


// ************************************************************************* //
