/*--------------------------------*- C++ -*----------------------------------*\
| =========                 |                                                 |
| \\      /  F ield         | OpenFOAM: The Open Source CFD Toolbox           |
|  \\    /   O peration     | Version:  2412                                  |
|   \\  /    A nd           | Website:  www.openfoam.com                      |
|    \\/     M anipulation  |                                                 |
\*---------------------------------------------------------------------------*/
FoamFile
{
    version     2.0;
    format      ascii;
    arch        "LSB;label=32;scalar=64";
    class       volScalarField;
    location    "7.8e-06";
    object      E_dof0;
}
// * * * * * * * * * * * * * * * * * * * * * * * * * * * * * * * * * * * * * //

dimensions      [0 0 0 0 0 0 0];

internalField   nonuniform List<scalar> 
84
(
95.3539
55.2041
60.3556
59.9244
59.9576
59.9622
59.9684
60.5194
102.349
59.3674
64.9483
64.5576
64.665
64.7441
64.8274
65.412
100.868
59.6647
64.3387
64.0728
64.1602
64.2316
64.3062
64.8873
100.36
58.5747
64.0289
63.6316
63.7245
63.789
64.3666
100.226
58.0758
63.5398
63.1342
63.2189
63.2749
63.8491
99.4811
57.632
63.0489
62.6387
62.7149
62.7625
63.3332
98.7496
57.2029
62.5686
62.1547
62.2227
62.262
62.8294
97.6582
57.1941
62.0395
61.6928
61.7466
61.7786
62.3426
97.0743
56.4365
61.6889
61.2687
61.3222
61.8817
96.5366
55.8891
61.1187
60.6922
60.7368
61.292
95.6497
55.4968
60.6467
60.2187
60.2548
60.8069
94.3068
55.2757
60.1622
59.7603
59.7865
59.7868
60.3371
)
;

boundaryField
{
    inlet
    {
        type            calculated;
        value           nonuniform List<scalar> 0();
    }
    outlet2
    {
        type            calculated;
        value           uniform 99.4306;
    }
    outlet1
    {
        type            calculated;
        value           uniform 99.4306;
    }
    wall
    {
        type            calculated;
        value           uniform 99.4306;
    }
    symmetryBottom
    {
        type            symmetry;
    }
    symmetryZ0
    {
        type            symmetry;
    }
    symmetryZ05
    {
        type            symmetry;
    }
    procBoundary0to1
    {
        type            processor;
        value           uniform 99.4306;
    }
}


// ************************************************************************* //
