/*--------------------------------*- C++ -*----------------------------------*\
| =========                 |                                                 |
| \\      /  F ield         | OpenFOAM: The Open Source CFD Toolbox           |
|  \\    /   O peration     | Version:  2412                                  |
|   \\  /    A nd           | Website:  www.openfoam.com                      |
|    \\/     M anipulation  |                                                 |
\*---------------------------------------------------------------------------*/
FoamFile
{
    version     2.0;
    format      ascii;
    arch        "LSB;label=32;scalar=64";
    class       volScalarField;
    location    "7.8e-06";
    object      rho_dof0;
}
// * * * * * * * * * * * * * * * * * * * * * * * * * * * * * * * * * * * * * //

dimensions      [0 0 0 0 0 0 0];

internalField   nonuniform List<scalar> 
84
(
2.70006e-05
1.57448e-05
1.71725e-05
1.70545e-05
1.70638e-05
1.70653e-05
1.70673e-05
1.7222e-05
2.89375e-05
1.69042e-05
1.84491e-05
1.83427e-05
1.83726e-05
1.83948e-05
1.84182e-05
1.85821e-05
2.85254e-05
1.69844e-05
1.82788e-05
1.82065e-05
1.82308e-05
1.82509e-05
1.82718e-05
1.84348e-05
2.83832e-05
1.66809e-05
1.8191e-05
1.80827e-05
1.81085e-05
1.81266e-05
1.82886e-05
2.83442e-05
1.65409e-05
1.80536e-05
1.7943e-05
1.79665e-05
1.79822e-05
1.81432e-05
2.81351e-05
1.64156e-05
1.79153e-05
1.78033e-05
1.78245e-05
1.78378e-05
1.79979e-05
2.79248e-05
1.62923e-05
1.77772e-05
1.76642e-05
1.7683e-05
1.7694e-05
1.78531e-05
2.76136e-05
1.62848e-05
1.7625e-05
1.75304e-05
1.75451e-05
1.7554e-05
1.77121e-05
2.74219e-05
1.60535e-05
1.75046e-05
1.73894e-05
1.74036e-05
1.75603e-05
2.7336e-05
1.59369e-05
1.73872e-05
1.72706e-05
1.72831e-05
1.7439e-05
2.7071e-05
1.58181e-05
1.72449e-05
1.71278e-05
1.71378e-05
1.72927e-05
2.66891e-05
1.57541e-05
1.71065e-05
1.69966e-05
1.70038e-05
1.70039e-05
1.71583e-05
)
;

boundaryField
{
    inlet
    {
        type            calculated;
        value           nonuniform List<scalar> 0();
    }
    outlet2
    {
        type            calculated;
        value           uniform 2.81085e-05;
    }
    outlet1
    {
        type            calculated;
        value           uniform 2.81085e-05;
    }
    wall
    {
        type            calculated;
        value           uniform 2.81085e-05;
    }
    symmetryBottom
    {
        type            symmetry;
    }
    symmetryZ0
    {
        type            symmetry;
    }
    symmetryZ05
    {
        type            symmetry;
    }
    procBoundary0to1
    {
        type            processor;
        value           uniform 2.81085e-05;
    }
}


// ************************************************************************* //
