/*--------------------------------*- C++ -*----------------------------------*\
| =========                 |                                                 |
| \\      /  F ield         | OpenFOAM: The Open Source CFD Toolbox           |
|  \\    /   O peration     | Version:  2412                                  |
|   \\  /    A nd           | Website:  www.openfoam.com                      |
|    \\/     M anipulation  |                                                 |
\*---------------------------------------------------------------------------*/
FoamFile
{
    version     2.0;
    format      ascii;
    arch        "LSB;label=32;scalar=64";
    class       volVectorField;
    location    "7.8e-06";
    object      rhoU_dof0;
}
// * * * * * * * * * * * * * * * * * * * * * * * * * * * * * * * * * * * * * //

dimensions      [0 0 0 0 0 0 0];

internalField   nonuniform List<vector> 
84
(
(0.0711087 0.000213103 2.21064e-19)
(0.0413135 0.000126606 -2.04956e-19)
(0.0451148 0.00013986 -3.17532e-19)
(0.0447985 0.000140897 2.09129e-19)
(0.0448229 0.000143012 -4.0076e-20)
(0.0448264 0.000145123 2.98471e-20)
(0.0448312 0.000147302 3.04674e-19)
(0.0452403 0.000148338 2.58482e-20)
(0.0762848 -0.00023683 2.15789e-19)
(0.0444029 -0.000143716 -2.0504e-19)
(0.0485197 -0.000157604 -4.24725e-19)
(0.0482338 -0.000159251 6.71726e-20)
(0.0483132 -0.000161929 -7.93856e-19)
(0.048372 -0.000164641 2.16231e-19)
(0.0484339 -0.000167448 6.45519e-19)
(0.0488678 -0.000168547 1.10028e-19)
(0.0751897 -0.000207245 -8.47313e-19)
(0.0446194 -0.000169138 1.84476e-19)
(0.048068 -0.000152311 2.1945e-19)
(0.0478736 -0.000158449 -3.72844e-20)
(0.0479382 -0.000160689 -1.34372e-20)
(0.0479913 -0.000163387 3.07334e-19)
(0.0480467 -0.000166151 -2.64833e-19)
(0.048478 -0.000167245 -2.86775e-19)
(0.0748128 -0.000216123 -8.02161e-19)
(0.043813 -0.000145117 3.7509e-19)
(0.0478368 -0.000157791 -5.2978e-20)
(0.0475459 -0.000159451 -7.03008e-19)
(0.0476145 -0.000162144 7.23991e-19)
(0.0476625 -0.000164866 1.02733e-19)
(0.0480913 -0.000165953 -2.65691e-19)
(0.0747113 -0.000236164 -4.62789e-19)
(0.0434426 -0.000142275 -1.10499e-19)
(0.0474734 -0.0001568 1.7617e-20)
(0.0471764 -0.00015831 5.31869e-21)
(0.0472389 -0.000160972 -2.32618e-19)
(0.0472805 -0.000163654 2.14561e-19)
(0.0477068 -0.000164737 4.52718e-19)
(0.0741563 -0.00022798 -3.15705e-19)
(0.0431108 -0.000137013 3.88906e-19)
(0.0471068 -0.000151162 -5.53318e-20)
(0.0468063 -0.000152655 4.59519e-19)
(0.0468625 -0.000155272 -4.34113e-19)
(0.0468979 -0.000157913 3.62268e-19)
(0.0473216 -0.000158958 -7.55852e-19)
(0.0735947 -0.000181883 -1.35531e-22)
(0.0427812 -0.000109753 3.48416e-19)
(0.046738 -0.000120693 -5.19254e-20)
(0.0464347 -0.000121922 3.16345e-21)
(0.0464846 -0.000123987 3.7525e-19)
(0.0465136 -0.000126075 3.38822e-20)
(0.0469347 -0.000126913 3.70391e-19)
(0.0727678 -0.000130599 9.56032e-21)
(0.0427611 -0.000114172 7.71586e-21)
(0.0463331 -9.93596e-05 -2.74555e-21)
(0.0460787 -0.000104008 -6.98312e-21)
(0.046118 -0.000105466 -1.25112e-21)
(0.0461413 -0.000107284 3.52744e-21)
(0.0465599 -0.000107993 -2.85317e-19)
(0.0722552 -0.000125098 1.16806e-18)
(0.0421431 -8.36828e-05 -1.4128e-19)
(0.0460102 -9.11475e-05 -7.78061e-19)
(0.045701 -9.20702e-05 -2.05616e-19)
(0.0457385 -9.36104e-05 4.39452e-19)
(0.0461534 -9.42389e-05 -7.17578e-20)
(0.0720348 -0.000132329 -4.01472e-19)
(0.0418478 -7.91824e-05 5.0222e-20)
(0.0457107 -8.73404e-05 -3.57339e-19)
(0.0453981 -8.80777e-05 4.08676e-19)
(0.0454315 -8.94691e-05 6.58203e-19)
(0.0458441 -9.00831e-05 -9.16134e-20)
(0.0713347 -0.000136965 -4.82979e-19)
(0.0415326 -9.21466e-05 6.64584e-20)
(0.0453336 -9.90329e-05 -4.43334e-21)
(0.0450197 -0.000100116 6.86922e-19)
(0.0450464 -0.000101714 6.81793e-19)
(0.0454564 -0.000102407 9.50639e-21)
(0.0703246 -2.49128e-05 -4.71346e-20)
(0.0413636 -0.000130607 4.3351e-21)
(0.0449679 -0.000113511 -2.8074e-22)
(0.0446734 -0.000117378 4.26613e-19)
(0.0446925 -0.000119001 -6.16983e-20)
(0.0446928 -0.000120857 5.53059e-21)
(0.0451015 -0.00012169 -3.45819e-19)
)
;

boundaryField
{
    inlet
    {
        type            calculated;
        value           nonuniform List<vector> 0();
    }
    outlet2
    {
        type            calculated;
        value           uniform (0.0741049 0 0);
    }
    outlet1
    {
        type            calculated;
        value           uniform (0.0741049 0 0);
    }
    wall
    {
        type            calculated;
        value           uniform (0.0741049 0 0);
    }
    symmetryBottom
    {
        type            symmetry;
    }
    symmetryZ0
    {
        type            symmetry;
    }
    symmetryZ05
    {
        type            symmetry;
    }
    procBoundary0to1
    {
        type            processor;
        value           uniform (0.0741049 0 0);
    }
}


// ************************************************************************* //
