/*--------------------------------*- C++ -*----------------------------------*\
| =========                 |                                                 |
| \\      /  F ield         | OpenFOAM: The Open Source CFD Toolbox           |
|  \\    /   O peration     | Version:  2412                                  |
|   \\  /    A nd           | Website:  www.openfoam.com                      |
|    \\/     M anipulation  |                                                 |
\*---------------------------------------------------------------------------*/
FoamFile
{
    version     2.0;
    format      ascii;
    arch        "LSB;label=32;scalar=64";
    class       volScalarField;
    location    "4e-07";
    object      E;
}
// * * * * * * * * * * * * * * * * * * * * * * * * * * * * * * * * * * * * * //

dimensions      [0 0 0 0 0 0 0];

internalField   nonuniform List<scalar> 
84
(
99.4306
93.1422
93.2182
99.4307
93.1433
93.2193
99.4307
93.1433
93.2193
99.4307
93.1433
93.2193
99.4307
93.1433
93.2193
99.4307
93.1433
93.2193
99.4307
93.1433
93.2193
99.4307
93.1433
93.2193
99.4307
93.1433
93.2193
99.4307
93.1433
93.2193
99.4307
93.1433
93.2193
99.4307
93.1428
93.2188
96.8854
96.867
96.9028
97.2358
97.2205
97.2564
97.2003
97.1847
97.2206
97.1649
97.1489
97.153
96.8621
97.1294
97.1131
97.1167
97.1531
97.0942
97.0776
97.0807
97.1171
97.0598
97.0429
97.0455
97.0818
97.0256
97.0083
97.0105
97.0468
96.9952
96.9777
96.9793
96.981
96.8627
96.9487
96.9308
96.9318
96.9328
96.9697
96.9161
96.8979
96.8984
96.8989
96.936
96.8813
96.8627
96.8628
96.8991
)
;

boundaryField
{
    inlet
    {
        type            calculated;
        value           uniform 0;
    }
    outlet2
    {
        type            calculated;
        value           uniform 0;
    }
    outlet1
    {
        type            calculated;
        value           nonuniform List<scalar> 0();
    }
    wall
    {
        type            calculated;
        value           uniform 0;
    }
    symmetryBottom
    {
        type            symmetry;
    }
    symmetryZ0
    {
        type            symmetry;
    }
    symmetryZ05
    {
        type            symmetry;
    }
    procBoundary1to0
    {
        type            processor;
        value           uniform 0;
    }
}


// ************************************************************************* //
