/*--------------------------------*- C++ -*----------------------------------*\
| =========                 |                                                 |
| \\      /  F ield         | OpenFOAM: The Open Source CFD Toolbox           |
|  \\    /   O peration     | Version:  2412                                  |
|   \\  /    A nd           | Website:  www.openfoam.com                      |
|    \\/     M anipulation  |                                                 |
\*---------------------------------------------------------------------------*/
FoamFile
{
    version     2.0;
    format      ascii;
    arch        "LSB;label=32;scalar=64";
    class       volVectorField;
    location    "4e-07";
    object      rhoU_dof0;
}
// * * * * * * * * * * * * * * * * * * * * * * * * * * * * * * * * * * * * * //

dimensions      [0 0 0 0 0 0 0];

internalField   nonuniform List<vector> 
84
(
(0.0741049 -1.3259e-09 0)
(0.0694446 -3.39806e-08 0)
(0.0695006 -3.34579e-08 -1.40513e-20)
(0.074105 -1.10924e-05 0)
(0.0694455 -1.0696e-05 0)
(0.0695015 -1.06996e-05 -1.24901e-20)
(0.074105 -1.10889e-05 0)
(0.0694455 -1.06935e-05 0)
(0.0695015 -1.0697e-05 2.18576e-20)
(0.074105 -1.10889e-05 0)
(0.0694455 -1.06935e-05 0)
(0.0695015 -1.0697e-05 -2.9664e-20)
(0.074105 -1.10889e-05 0)
(0.0694455 -1.06935e-05 0)
(0.0695015 -1.0697e-05 -4.99603e-20)
(0.074105 -1.10889e-05 0)
(0.0694455 -1.06935e-05 0)
(0.0695015 -1.0697e-05 2.65414e-20)
(0.074105 -1.10889e-05 0)
(0.0694455 -1.06935e-05 0)
(0.0695015 -1.0697e-05 -3.5909e-20)
(0.074105 -1.10889e-05 0)
(0.0694455 -1.06935e-05 0)
(0.0695015 -1.0697e-05 -4.37153e-20)
(0.074105 -1.10889e-05 0)
(0.0694455 -1.06935e-05 0)
(0.0695015 -1.0697e-05 1.56126e-20)
(0.074105 -1.10889e-05 0)
(0.0694455 -1.06935e-05 0)
(0.0695015 -1.0697e-05 -3.43479e-20)
(0.074105 -1.10889e-05 0)
(0.0694455 -1.06935e-05 0)
(0.0695015 -1.0697e-05 -9.36756e-20)
(0.074105 -1.10902e-05 0)
(0.0694451 -1.0662e-05 0)
(0.0695011 -1.06661e-05 0)
(0.0722191 1.12759e-05 6.61448e-23)
(0.0722055 1.13775e-05 1.04089e-20)
(0.0722321 1.13804e-05 1.14236e-21)
(0.0724783 -1.12198e-05 6.10717e-23)
(0.072467 -1.13763e-05 1.17232e-20)
(0.0724937 -1.13783e-05 -7.6853e-24)
(0.072452 -1.12176e-05 -9.67037e-23)
(0.0724405 -1.1374e-05 -3.91239e-21)
(0.0724671 -1.13757e-05 -2.48641e-20)
(0.0724257 -1.12153e-05 1.49948e-22)
(0.072414 -1.13717e-05 -1.90007e-22)
(0.072417 -1.15336e-05 8.80245e-25)
(0.0722015 2.16649e-08 1.85624e-20)
(0.0723995 -1.12127e-05 -8.73948e-21)
(0.0723875 -1.1369e-05 -1.43078e-22)
(0.0723901 -1.15309e-05 -1.91551e-22)
(0.0724171 -1.15329e-05 1.5928e-20)
(0.0723731 -1.06223e-05 -1.27252e-22)
(0.0723609 -1.07733e-05 -1.30095e-20)
(0.0723632 -1.09268e-05 -2.8713e-22)
(0.0723902 -1.09287e-05 1.06162e-20)
(0.0723467 -8.55519e-06 8.47002e-23)
(0.0723343 -8.68732e-06 -1.99046e-24)
(0.0723362 -8.81102e-06 -9.92575e-23)
(0.0723631 -8.81269e-06 -9.655e-23)
(0.0723205 -7.19659e-06 2.80517e-22)
(0.0723078 -7.31635e-06 -1.2928e-20)
(0.0723093 -7.42054e-06 1.20468e-20)
(0.0723362 -7.42181e-06 7.1487e-23)
(0.0722942 -6.54807e-06 -7.04818e-23)
(0.0722813 -6.66186e-06 -1.94208e-20)
(0.0722824 -6.75669e-06 -1.83744e-20)
(0.0722836 -6.85429e-06 2.02077e-20)
(0.0722019 2.62353e-08 1.30384e-19)
(0.0722682 -6.60323e-06 2.2472e-22)
(0.072255 -6.71726e-06 -1.95077e-20)
(0.0722558 -6.81263e-06 1.19863e-20)
(0.0722566 -6.9108e-06 3.20429e-20)
(0.0722839 -6.91415e-06 1.75429e-20)
(0.0722421 -7.4001e-06 4.96396e-22)
(0.0722286 -7.52136e-06 -4.6896e-25)
(0.0722291 -7.62821e-06 2.39644e-23)
(0.0722295 -7.7384e-06 7.28782e-24)
(0.0722569 -7.75465e-06 -1.74918e-20)
(0.0722158 -8.90354e-06 1.38538e-23)
(0.0722022 -9.03819e-06 1.82138e-20)
(0.0722022 -9.16659e-06 -8.36124e-23)
(0.0722292 -9.16852e-06 -3.0495e-20)
)
;

boundaryField
{
    inlet
    {
        type            calculated;
        value           uniform (0.0741049 0 0);
    }
    outlet2
    {
        type            calculated;
        value           uniform (0.0741049 0 0);
    }
    outlet1
    {
        type            calculated;
        value           nonuniform List<vector> 0();
    }
    wall
    {
        type            calculated;
        value           uniform (0.0741049 0 0);
    }
    symmetryBottom
    {
        type            symmetry;
    }
    symmetryZ0
    {
        type            symmetry;
    }
    symmetryZ05
    {
        type            symmetry;
    }
    procBoundary1to0
    {
        type            processor;
        value           uniform (0.0741049 0 0);
    }
}


// ************************************************************************* //
