/*--------------------------------*- C++ -*----------------------------------*\
| =========                 |                                                 |
| \\      /  F ield         | OpenFOAM: The Open Source CFD Toolbox           |
|  \\    /   O peration     | Version:  2412                                  |
|   \\  /    A nd           | Website:  www.openfoam.com                      |
|    \\/     M anipulation  |                                                 |
\*---------------------------------------------------------------------------*/
FoamFile
{
    version     2.0;
    format      ascii;
    arch        "LSB;label=32;scalar=64";
    class       volScalarField;
    location    "4e-07";
    object      T;
}
// * * * * * * * * * * * * * * * * * * * * * * * * * * * * * * * * * * * * * //

dimensions      [0 0 0 0 0 0 0];

internalField   nonuniform List<scalar> 
84
(
200.001
200
200.001
200
199.999
200
200
199.999
200
200
199.999
200
200
199.999
200
200
199.999
200
200
199.999
200
200
199.999
200
200
199.999
200
200
199.999
200
200
199.999
200
200
199.999
199.999
200.236
200.238
200.238
200.001
200
200
200.001
200
200
200.001
200
200
200.001
200.001
200
200
200
200.048
200.048
200.049
200.049
200.212
200.214
200.217
200.217
200.367
200.37
200.375
200.375
200.954
200.962
200.976
200.99
199.996
199.611
199.607
199.602
199.596
199.595
199.908
199.907
199.906
199.904
199.905
199.962
199.961
199.961
199.961
)
;

boundaryField
{
    inlet
    {
        type            calculated;
        value           uniform 0;
    }
    outlet2
    {
        type            calculated;
        value           uniform 0;
    }
    outlet1
    {
        type            calculated;
        value           nonuniform List<scalar> 0();
    }
    wall
    {
        type            calculated;
        value           uniform 0;
    }
    symmetryBottom
    {
        type            symmetry;
    }
    symmetryZ0
    {
        type            symmetry;
    }
    symmetryZ05
    {
        type            symmetry;
    }
    procBoundary1to0
    {
        type            processor;
        value           uniform 0;
    }
}


// ************************************************************************* //
