/*--------------------------------*- C++ -*----------------------------------*\
| =========                 |                                                 |
| \\      /  F ield         | OpenFOAM: The Open Source CFD Toolbox           |
|  \\    /   O peration     | Version:  2412                                  |
|   \\  /    A nd           | Website:  www.openfoam.com                      |
|    \\/     M anipulation  |                                                 |
\*---------------------------------------------------------------------------*/
FoamFile
{
    version     2.0;
    format      ascii;
    arch        "LSB;label=32;scalar=64";
    class       volVectorField;
    location    "4e-07";
    object      U;
}
// * * * * * * * * * * * * * * * * * * * * * * * * * * * * * * * * * * * * * //

dimensions      [0 0 0 0 0 0 0];

internalField   nonuniform List<vector> 
84
(
(2636.39 -4.71708e-05 0)
(2635.35 -0.00128953 0)
(2635.37 -0.00126868 -5.32806e-16)
(2636.39 -0.394629 0)
(2635.35 -0.405897 0)
(2635.37 -0.405709 -4.73601e-16)
(2636.39 -0.394504 0)
(2635.35 -0.4058 0)
(2635.37 -0.405612 8.28801e-16)
(2636.39 -0.394504 0)
(2635.35 -0.4058 0)
(2635.37 -0.405612 -1.12481e-15)
(2636.39 -0.394504 0)
(2635.35 -0.4058 0)
(2635.37 -0.405612 -1.89441e-15)
(2636.39 -0.394504 0)
(2635.35 -0.4058 0)
(2635.37 -0.405612 1.0064e-15)
(2636.39 -0.394504 0)
(2635.35 -0.4058 0)
(2635.37 -0.405612 -1.36161e-15)
(2636.39 -0.394504 0)
(2635.35 -0.4058 0)
(2635.37 -0.405612 -1.65761e-15)
(2636.39 -0.394504 0)
(2635.35 -0.4058 0)
(2635.37 -0.405612 5.92001e-16)
(2636.39 -0.394504 0)
(2635.35 -0.4058 0)
(2635.37 -0.405612 -1.30241e-15)
(2636.39 -0.394504 0)
(2635.35 -0.4058 0)
(2635.37 -0.405611 -3.55201e-15)
(2636.39 -0.394551 0)
(2635.35 -0.40461 0)
(2635.37 -0.404442 0)
(2635.91 0.411556 2.4142e-18)
(2635.9 0.415343 3.79982e-16)
(2635.91 0.415296 4.16872e-17)
(2636.04 -0.408066 2.22118e-18)
(2636.04 -0.413822 4.26439e-16)
(2636.04 -0.413741 -2.79456e-19)
(2636.04 -0.40813 -3.51839e-18)
(2636.03 -0.413888 -1.42368e-16)
(2636.04 -0.413797 -9.04448e-16)
(2636.03 -0.408195 5.45755e-18)
(2636.02 -0.413954 -6.91665e-18)
(2636.03 -0.419832 3.20414e-20)
(2635.98 0.000790957 6.77688e-16)
(2636.02 -0.408248 -3.182e-16)
(2636.02 -0.414008 -5.21024e-18)
(2636.02 -0.419888 -6.97516e-18)
(2636.03 -0.419805 5.79789e-16)
(2636.02 -0.386892 -4.63485e-18)
(2636.01 -0.392457 -4.73917e-16)
(2636.01 -0.398035 -1.04594e-17)
(2636.02 -0.397958 3.8658e-16)
(2636 -0.311714 3.08611e-18)
(2636 -0.316583 -7.25361e-20)
(2636 -0.321082 -3.61704e-18)
(2636 -0.321024 -3.51707e-18)
(2636 -0.262307 1.02245e-17)
(2635.99 -0.266719 -4.71291e-16)
(2635.99 -0.270511 4.3916e-16)
(2636 -0.270457 2.60505e-18)
(2635.99 -0.238756 -2.56991e-18)
(2635.99 -0.242947 -7.08246e-16)
(2635.99 -0.246402 -6.70075e-16)
(2635.99 -0.249957 7.36918e-16)
(2635.98 0.000957807 4.7601e-15)
(2635.99 -0.240853 8.19669e-18)
(2635.98 -0.245057 -7.11674e-16)
(2635.98 -0.248533 4.37277e-16)
(2635.98 -0.252112 1.16895e-15)
(2635.99 -0.25214 6.39741e-16)
(2635.99 -0.270017 1.81126e-17)
(2635.98 -0.274492 -1.71147e-20)
(2635.98 -0.278389 8.74573e-19)
(2635.98 -0.282409 2.65966e-19)
(2635.99 -0.282895 -6.38113e-16)
(2635.98 -0.324992 5.05685e-19)
(2635.98 -0.329969 6.64954e-16)
(2635.98 -0.334656 -3.05254e-18)
(2635.98 -0.334602 -1.11291e-15)
)
;

boundaryField
{
    inlet
    {
        type            calculated;
        value           uniform (0 0 0);
    }
    outlet2
    {
        type            calculated;
        value           uniform (0 0 0);
    }
    outlet1
    {
        type            calculated;
        value           nonuniform List<vector> 0();
    }
    wall
    {
        type            calculated;
        value           uniform (0 0 0);
    }
    symmetryBottom
    {
        type            symmetry;
    }
    symmetryZ0
    {
        type            symmetry;
    }
    symmetryZ05
    {
        type            symmetry;
    }
    procBoundary1to0
    {
        type            processor;
        value           uniform (0 0 0);
    }
}


// ************************************************************************* //
