/*--------------------------------*- C++ -*----------------------------------*\
| =========                 |                                                 |
| \\      /  F ield         | OpenFOAM: The Open Source CFD Toolbox           |
|  \\    /   O peration     | Version:  2412                                  |
|   \\  /    A nd           | Website:  www.openfoam.com                      |
|    \\/     M anipulation  |                                                 |
\*---------------------------------------------------------------------------*/
FoamFile
{
    version     2.0;
    format      ascii;
    arch        "LSB;label=32;scalar=64";
    class       volScalarField;
    location    "1e-07";
    object      rho;
}
// * * * * * * * * * * * * * * * * * * * * * * * * * * * * * * * * * * * * * //

dimensions      [0 0 0 0 0 0 0];

internalField   nonuniform List<scalar> 
84
(
2.81085e-05
2.76639e-05
2.76639e-05
2.81085e-05
2.76639e-05
2.76639e-05
2.81085e-05
2.76639e-05
2.76639e-05
2.81085e-05
2.76639e-05
2.76639e-05
2.81085e-05
2.76639e-05
2.76639e-05
2.81085e-05
2.76639e-05
2.76639e-05
2.81085e-05
2.76639e-05
2.76639e-05
2.81085e-05
2.76639e-05
2.76639e-05
2.81085e-05
2.76639e-05
2.76639e-05
2.81085e-05
2.76639e-05
2.76639e-05
2.81085e-05
2.76639e-05
2.76639e-05
2.81085e-05
2.76639e-05
2.76639e-05
2.79278e-05
2.79278e-05
2.79304e-05
2.79524e-05
2.79527e-05
2.79553e-05
2.79499e-05
2.79502e-05
2.79527e-05
2.79474e-05
2.79477e-05
2.7948e-05
2.79274e-05
2.79449e-05
2.79451e-05
2.79454e-05
2.7948e-05
2.79424e-05
2.79426e-05
2.79428e-05
2.79454e-05
2.79399e-05
2.79401e-05
2.79402e-05
2.79428e-05
2.79374e-05
2.79375e-05
2.79377e-05
2.79402e-05
2.79349e-05
2.7935e-05
2.79351e-05
2.79352e-05
2.79274e-05
2.79324e-05
2.79324e-05
2.79325e-05
2.79326e-05
2.79352e-05
2.79299e-05
2.79299e-05
2.79299e-05
2.793e-05
2.79326e-05
2.79274e-05
2.79274e-05
2.79274e-05
2.79299e-05
)
;

boundaryField
{
    inlet
    {
        type            calculated;
        value           uniform 0;
    }
    outlet2
    {
        type            calculated;
        value           uniform 0;
    }
    outlet1
    {
        type            calculated;
        value           nonuniform List<scalar> 0();
    }
    wall
    {
        type            calculated;
        value           uniform 0;
    }
    symmetryBottom
    {
        type            symmetry;
    }
    symmetryZ0
    {
        type            symmetry;
    }
    symmetryZ05
    {
        type            symmetry;
    }
    procBoundary1to0
    {
        type            processor;
        value           uniform 0;
    }
}


// ************************************************************************* //
