/*--------------------------------*- C++ -*----------------------------------*\
| =========                 |                                                 |
| \\      /  F ield         | OpenFOAM: The Open Source CFD Toolbox           |
|  \\    /   O peration     | Version:  2412                                  |
|   \\  /    A nd           | Website:  www.openfoam.com                      |
|    \\/     M anipulation  |                                                 |
\*---------------------------------------------------------------------------*/
FoamFile
{
    version     2.0;
    format      ascii;
    arch        "LSB;label=32;scalar=64";
    class       volVectorField;
    location    "1e-07";
    object      rhoU_dof0;
}
// * * * * * * * * * * * * * * * * * * * * * * * * * * * * * * * * * * * * * //

dimensions      [0 0 0 0 0 0 0];

internalField   nonuniform List<vector> 
84
(
(0.0741049 -1.95156e-22 0)
(0.0729257 -3.90313e-22 0)
(0.0729257 3.90313e-22 -3.1225e-21)
(0.0741049 -2.808e-06 0)
(0.0729257 -2.808e-06 0)
(0.0729257 -2.808e-06 -3.1225e-21)
(0.0741049 -2.808e-06 0)
(0.0729257 -2.808e-06 0)
(0.0729257 -2.808e-06 4.68375e-21)
(0.0741049 -2.808e-06 0)
(0.0729257 -2.808e-06 0)
(0.0729257 -2.808e-06 -7.80626e-21)
(0.0741049 -2.808e-06 0)
(0.0729257 -2.808e-06 0)
(0.0729257 -2.808e-06 -1.249e-20)
(0.0741049 -2.808e-06 0)
(0.0729257 -2.808e-06 0)
(0.0729257 -2.808e-06 6.245e-21)
(0.0741049 -2.808e-06 0)
(0.0729257 -2.808e-06 0)
(0.0729257 -2.808e-06 -9.36751e-21)
(0.0741049 -2.808e-06 0)
(0.0729257 -2.808e-06 0)
(0.0729257 -2.808e-06 -1.09288e-20)
(0.0741049 -2.808e-06 0)
(0.0729257 -2.808e-06 0)
(0.0729257 -2.808e-06 4.68375e-21)
(0.0741049 -2.808e-06 0)
(0.0729257 -2.808e-06 0)
(0.0729257 -2.808e-06 -9.36751e-21)
(0.0741049 -2.808e-06 0)
(0.0729257 -2.808e-06 0)
(0.0729257 -2.808e-06 -2.34188e-20)
(0.0741049 -2.808e-06 0)
(0.0729257 -2.808e-06 0)
(0.0729257 -2.808e-06 0)
(0.0736252 2.87002e-06 0)
(0.0736252 2.91026e-06 2.6156e-21)
(0.0736319 2.91026e-06 2.88457e-22)
(0.0736909 -2.84682e-06 0)
(0.0736918 -2.88673e-06 2.6156e-21)
(0.0736986 -2.88673e-06 0)
(0.0736842 -2.84682e-06 0)
(0.0736851 -2.88673e-06 0)
(0.0736918 -2.88673e-06 -5.23119e-21)
(0.0736776 -2.84682e-06 0)
(0.0736784 -2.88673e-06 -4.78164e-23)
(0.0736791 -2.92778e-06 0)
(0.0736245 -1.93105e-12 3.97918e-21)
(0.073671 -2.84682e-06 -2.57944e-21)
(0.0736716 -2.88673e-06 -4.78164e-23)
(0.0736723 -2.92778e-06 -4.84963e-23)
(0.0736791 -2.92778e-06 3.97918e-21)
(0.0736643 -2.69766e-06 0)
(0.0736649 -2.73548e-06 -5.23119e-21)
(0.0736654 -2.77437e-06 -9.19104e-23)
(0.0736723 -2.77437e-06 2.65278e-21)
(0.0736576 -2.17716e-06 -2.35777e-23)
(0.0736581 -2.20768e-06 0)
(0.0736586 -2.23907e-06 -2.56806e-23)
(0.0736654 -2.23907e-06 -2.42481e-23)
(0.073651 -1.83478e-06 1.67638e-23)
(0.0736513 -1.8605e-06 -2.59169e-21)
(0.0736517 -1.88695e-06 2.67703e-21)
(0.0736586 -1.88695e-06 1.72405e-23)
(0.0736443 -1.6724e-06 4.12423e-24)
(0.0736446 -1.69584e-06 -5.2031e-21)
(0.0736449 -1.71995e-06 -5.30133e-21)
(0.0736452 -1.74476e-06 4.04087e-21)
(0.0736245 9.57671e-13 3.22679e-20)
(0.0736377 -1.69153e-06 1.17888e-23)
(0.0736379 -1.71524e-06 -5.22669e-21)
(0.0736381 -1.73963e-06 2.65278e-21)
(0.0736383 -1.76472e-06 8.06084e-21)
(0.0736452 -1.76472e-06 4.04887e-21)
(0.0736311 -1.89326e-06 9.78579e-24)
(0.0736312 -1.91981e-06 0)
(0.0736313 -1.9471e-06 6.06204e-24)
(0.0736314 -1.97519e-06 2.08973e-24)
(0.0736383 -1.97518e-06 -4.03657e-21)
(0.0736245 -2.27828e-06 3.54004e-24)
(0.0736245 -2.31022e-06 5.23119e-21)
(0.0736245 -2.34306e-06 3.64071e-24)
(0.0736313 -2.34306e-06 -7.95471e-21)
)
;

boundaryField
{
    inlet
    {
        type            calculated;
        value           uniform (0.0741049 0 0);
    }
    outlet2
    {
        type            calculated;
        value           uniform (0.0741049 0 0);
    }
    outlet1
    {
        type            calculated;
        value           nonuniform List<vector> 0();
    }
    wall
    {
        type            calculated;
        value           uniform (0.0741049 0 0);
    }
    symmetryBottom
    {
        type            symmetry;
    }
    symmetryZ0
    {
        type            symmetry;
    }
    symmetryZ05
    {
        type            symmetry;
    }
    procBoundary1to0
    {
        type            processor;
        value           uniform (0.0741049 0 0);
    }
}


// ************************************************************************* //
