/*--------------------------------*- C++ -*----------------------------------*\
| =========                 |                                                 |
| \\      /  F ield         | OpenFOAM: The Open Source CFD Toolbox           |
|  \\    /   O peration     | Version:  2412                                  |
|   \\  /    A nd           | Website:  www.openfoam.com                      |
|    \\/     M anipulation  |                                                 |
\*---------------------------------------------------------------------------*/
FoamFile
{
    version     2.0;
    format      ascii;
    arch        "LSB;label=32;scalar=64";
    class       volVectorField;
    location    "1e-07";
    object      U;
}
// * * * * * * * * * * * * * * * * * * * * * * * * * * * * * * * * * * * * * //

dimensions      [0 0 0 0 0 0 0];

internalField   nonuniform List<vector> 
84
(
(2636.39 -6.94297e-18 0)
(2636.13 -1.41091e-17 0)
(2636.13 1.41091e-17 -1.12873e-16)
(2636.39 -0.0998988 0)
(2636.13 -0.101504 0)
(2636.13 -0.101504 -1.12873e-16)
(2636.39 -0.0998988 0)
(2636.13 -0.101504 0)
(2636.13 -0.101504 1.69309e-16)
(2636.39 -0.0998988 0)
(2636.13 -0.101504 0)
(2636.13 -0.101504 -2.82182e-16)
(2636.39 -0.0998988 0)
(2636.13 -0.101504 0)
(2636.13 -0.101504 -4.51492e-16)
(2636.39 -0.0998988 0)
(2636.13 -0.101504 0)
(2636.13 -0.101504 2.25746e-16)
(2636.39 -0.0998988 0)
(2636.13 -0.101504 0)
(2636.13 -0.101504 -3.38619e-16)
(2636.39 -0.0998988 0)
(2636.13 -0.101504 0)
(2636.13 -0.101504 -3.95055e-16)
(2636.39 -0.0998988 0)
(2636.13 -0.101504 0)
(2636.13 -0.101504 1.69309e-16)
(2636.39 -0.0998988 0)
(2636.13 -0.101504 0)
(2636.13 -0.101504 -3.38619e-16)
(2636.39 -0.0998988 0)
(2636.13 -0.101504 0)
(2636.13 -0.101504 -8.46547e-16)
(2636.39 -0.0998988 0)
(2636.13 -0.101504 0)
(2636.13 -0.101504 0)
(2636.27 0.102766 0)
(2636.27 0.104206 9.36556e-17)
(2636.27 0.104197 1.03277e-17)
(2636.3 -0.101845 0)
(2636.3 -0.103272 9.3572e-17)
(2636.3 -0.103263 0)
(2636.3 -0.101855 0)
(2636.3 -0.103281 0)
(2636.3 -0.103272 -1.87144e-16)
(2636.3 -0.101864 0)
(2636.3 -0.103291 -1.71093e-18)
(2636.3 -0.104758 0)
(2636.29 -6.91453e-08 1.42483e-16)
(2636.3 -0.101873 -9.23044e-17)
(2636.3 -0.1033 -1.71108e-18)
(2636.3 -0.104768 -1.7354e-18)
(2636.3 -0.104758 1.42378e-16)
(2636.29 -0.0965436 0)
(2636.29 -0.0978963 -1.87212e-16)
(2636.29 -0.0992874 -3.28923e-18)
(2636.29 -0.0992783 9.49275e-17)
(2636.29 -0.0779231 -8.43872e-19)
(2636.29 -0.079015 0)
(2636.29 -0.0801379 -9.19126e-19)
(2636.29 -0.0801306 -8.67778e-19)
(2636.29 -0.0656746 6.00049e-19)
(2636.29 -0.0665949 -9.27673e-17)
(2636.29 -0.0675414 9.58216e-17)
(2636.29 -0.0675352 6.17049e-19)
(2636.29 -0.0598677 1.47637e-19)
(2636.29 -0.0607068 -1.86258e-16)
(2636.29 -0.0615697 -1.89773e-16)
(2636.29 -0.0624574 1.44652e-16)
(2636.29 3.42915e-08 1.15542e-15)
(2636.29 -0.0605581 4.2205e-19)
(2636.29 -0.0614068 -1.87119e-16)
(2636.29 -0.0622798 9.49712e-17)
(2636.29 -0.0631779 2.88582e-16)
(2636.29 -0.063172 1.44938e-16)
(2636.29 -0.0677864 3.5037e-19)
(2636.29 -0.0687366 0)
(2636.29 -0.0697138 2.17044e-19)
(2636.29 -0.0707192 7.48203e-20)
(2636.29 -0.0707125 -1.44511e-16)
(2636.28 -0.0815787 1.26759e-19)
(2636.28 -0.0827224 1.87314e-16)
(2636.28 -0.0838985 1.30364e-19)
(2636.29 -0.0838908 -2.8481e-16)
)
;

boundaryField
{
    inlet
    {
        type            calculated;
        value           uniform (0 0 0);
    }
    outlet2
    {
        type            calculated;
        value           uniform (0 0 0);
    }
    outlet1
    {
        type            calculated;
        value           nonuniform List<vector> 0();
    }
    wall
    {
        type            calculated;
        value           uniform (0 0 0);
    }
    symmetryBottom
    {
        type            symmetry;
    }
    symmetryZ0
    {
        type            symmetry;
    }
    symmetryZ05
    {
        type            symmetry;
    }
    procBoundary1to0
    {
        type            processor;
        value           uniform (0 0 0);
    }
}


// ************************************************************************* //
