/*--------------------------------*- C++ -*----------------------------------*\
| =========                 |                                                 |
| \\      /  F ield         | OpenFOAM: The Open Source CFD Toolbox           |
|  \\    /   O peration     | Version:  2412                                  |
|   \\  /    A nd           | Website:  www.openfoam.com                      |
|    \\/     M anipulation  |                                                 |
\*---------------------------------------------------------------------------*/
FoamFile
{
    version     2.0;
    format      ascii;
    arch        "LSB;label=32;scalar=64";
    class       volVectorField;
    location    "8.3e-06";
    object      rhoU_dof0;
}
// * * * * * * * * * * * * * * * * * * * * * * * * * * * * * * * * * * * * * //

dimensions      [0 0 0 0 0 0 0];

internalField   nonuniform List<vector> 
84
(
(0.0741147 -9.74079e-07 0)
(0.00236971 -6.80547e-07 0)
(0.0234045 -6.33624e-07 -1.06976e-19)
(0.0741535 -0.000168506 0)
(0.00238725 -2.12523e-05 0)
(0.0234266 -7.1638e-05 -1.08522e-19)
(0.0741438 -0.000167583 0)
(0.00238541 -2.1095e-05 0)
(0.023422 -7.12089e-05 1.46752e-19)
(0.0741438 -0.000167583 0)
(0.00238541 -2.10949e-05 0)
(0.023422 -7.12089e-05 -2.11028e-19)
(0.0741438 -0.000167583 0)
(0.00238541 -2.10948e-05 0)
(0.023422 -7.12089e-05 -3.22489e-19)
(0.0741438 -0.000167583 0)
(0.00238541 -2.10948e-05 0)
(0.023422 -7.12089e-05 2.07653e-19)
(0.0741438 -0.000167583 0)
(0.00238541 -2.10948e-05 0)
(0.023422 -7.12089e-05 -2.4537e-19)
(0.0741438 -0.000167583 0)
(0.00238541 -2.10948e-05 0)
(0.023422 -7.12089e-05 -2.77223e-19)
(0.0741438 -0.000167583 0)
(0.00238541 -2.10948e-05 0)
(0.023422 -7.12089e-05 1.08465e-19)
(0.0741438 -0.000167583 0)
(0.00238541 -2.10948e-05 0)
(0.023422 -7.12089e-05 -2.47866e-19)
(0.0741438 -0.000167584 0)
(0.00238535 -2.10885e-05 0)
(0.023422 -7.12066e-05 -6.41238e-19)
(0.074144 -0.000167603 0)
(0.00238025 -2.05911e-05 0)
(0.0234203 -7.10437e-05 0)
(0.0471309 0.000157138 2.16073e-20)
(0.0429994 0.000132639 1.67757e-19)
(0.0437904 0.000136162 1.83212e-20)
(0.0509575 -0.000163844 2.09726e-20)
(0.0462292 -0.000151161 1.86885e-19)
(0.0471067 -0.000153573 -6.72527e-21)
(0.0505478 -0.000162617 -2.90288e-20)
(0.0458831 -0.000150058 -9.02924e-20)
(0.0467456 -0.000152195 -2.63066e-19)
(0.0501406 -0.000161351 3.85151e-20)
(0.0455396 -0.000148969 -6.72852e-21)
(0.0460457 -0.000152662 6.28242e-22)
(0.0429051 1.59316e-05 2.10443e-19)
(0.0497356 -0.000160163 -3.29802e-20)
(0.0451979 -0.000147942 1.52905e-21)
(0.0456919 -0.000151586 -2.83278e-21)
(0.0460572 -0.000152458 2.11621e-19)
(0.0493299 -0.000153776 -3.78436e-20)
(0.0448556 -0.000142623 -1.76973e-19)
(0.0453374 -0.000146117 1.97227e-20)
(0.0457009 -0.000146963 1.96563e-19)
(0.0489226 -0.000120274 4.41496e-20)
(0.0445117 -0.000114202 -6.28895e-21)
(0.0449815 -0.000116692 8.99504e-22)
(0.0453431 -0.000117388 -1.61712e-21)
(0.0485277 -0.000100463 5.28307e-20)
(0.044178 -9.7304e-05 -1.85402e-19)
(0.0446362 -9.92446e-05 2.04987e-19)
(0.0449926 -9.96633e-05 2.32657e-21)
(0.0481022 -8.63187e-05 -2.10837e-20)
(0.043817 -8.52643e-05 -2.1777e-19)
(0.0442629 -8.67353e-05 -2.0016e-19)
(0.0442474 -8.80081e-05 2.48593e-19)
(0.0431485 1.66995e-05 1.44721e-18)
(0.0477698 -8.22535e-05 4.60173e-20)
(0.043541 -8.18343e-05 -2.15543e-19)
(0.0439763 -8.31067e-05 2.00864e-19)
(0.0439573 -8.4268e-05 3.03299e-19)
(0.0443392 -8.57929e-05 2.15181e-19)
(0.0473626 -9.5278e-05 1.16891e-19)
(0.0431962 -9.27416e-05 -1.14057e-20)
(0.0436196 -9.44251e-05 1.09745e-21)
(0.0435975 -9.59251e-05 -7.68419e-22)
(0.044132 -0.000107656 -2.16629e-19)
(0.0469884 -0.000115843 1.93356e-22)
(0.0428791 -0.00010999 2.13051e-19)
(0.0432919 -0.000112264 -3.4392e-20)
(0.0436433 -0.00011286 -3.12478e-19)
)
;

boundaryField
{
    inlet
    {
        type            calculated;
        value           uniform (0.0741049 0 0);
    }
    outlet2
    {
        type            calculated;
        value           uniform (0.0741049 0 0);
    }
    outlet1
    {
        type            calculated;
        value           nonuniform List<vector> 0();
    }
    wall
    {
        type            calculated;
        value           uniform (0.0741049 0 0);
    }
    symmetryBottom
    {
        type            symmetry;
    }
    symmetryZ0
    {
        type            symmetry;
    }
    symmetryZ05
    {
        type            symmetry;
    }
    procBoundary1to0
    {
        type            processor;
        value           uniform (0.0741049 0 0);
    }
}


// ************************************************************************* //
