/*--------------------------------*- C++ -*----------------------------------*\
| =========                 |                                                 |
| \\      /  F ield         | OpenFOAM: The Open Source CFD Toolbox           |
|  \\    /   O peration     | Version:  2412                                  |
|   \\  /    A nd           | Website:  www.openfoam.com                      |
|    \\/     M anipulation  |                                                 |
\*---------------------------------------------------------------------------*/
FoamFile
{
    version     2.0;
    format      ascii;
    arch        "LSB;label=32;scalar=64";
    class       volVectorField;
    location    "8.3e-06";
    object      U;
}
// * * * * * * * * * * * * * * * * * * * * * * * * * * * * * * * * * * * * * //

dimensions      [0 0 0 0 0 0 0];

internalField   nonuniform List<vector> 
84
(
(2636.39 -0.0346497 0)
(2335.21 -0.670639 0)
(2624.37 -0.071049 -1.19953e-14)
(2636.39 -5.9909 0)
(2336.85 -20.8036 0)
(2624.37 -8.02526 -1.21572e-14)
(2636.39 -5.95889 0)
(2336.72 -20.6643 0)
(2624.37 -7.97876 1.64431e-14)
(2636.39 -5.95889 0)
(2336.72 -20.6642 0)
(2624.37 -7.97875 -2.36451e-14)
(2636.39 -5.95889 0)
(2336.72 -20.6642 0)
(2624.37 -7.97875 -3.6134e-14)
(2636.39 -5.95889 0)
(2336.72 -20.6642 0)
(2624.37 -7.97875 2.3267e-14)
(2636.39 -5.95889 0)
(2336.72 -20.6642 0)
(2624.37 -7.97875 -2.7493e-14)
(2636.39 -5.95889 0)
(2336.72 -20.6642 0)
(2624.37 -7.97875 -3.10621e-14)
(2636.39 -5.95889 0)
(2336.72 -20.6642 0)
(2624.37 -7.97875 1.21532e-14)
(2636.39 -5.95889 0)
(2336.72 -20.6642 0)
(2624.37 -7.97875 -2.77727e-14)
(2636.39 -5.9589 0)
(2336.71 -20.6585 0)
(2624.37 -7.97851 -7.1849e-14)
(2636.39 -5.95956 0)
(2336.21 -20.2102 0)
(2624.37 -7.96081 0)
(2628.41 8.76334 1.20501e-15)
(2625.9 8.10003 1.02447e-14)
(2626.5 8.16687 1.09889e-15)
(2631.39 -8.46073 1.08301e-15)
(2628.66 -8.59521 1.06265e-14)
(2629.28 -8.57173 -3.75374e-16)
(2631.26 -8.465 -1.51109e-15)
(2628.54 -8.59651 -5.17265e-15)
(2629.16 -8.56007 -1.47959e-14)
(2631.13 -8.4669 2.02108e-15)
(2628.43 -8.59808 -3.88353e-16)
(2628.91 -8.71602 3.58685e-17)
(2627.62 0.975693 1.28881e-14)
(2630.99 -8.47254 -1.74464e-15)
(2628.31 -8.60299 8.89161e-17)
(2628.78 -8.72117 -1.62978e-16)
(2628.9 -8.70217 1.20791e-14)
(2630.82 -8.20103 -2.01825e-15)
(2628.15 -8.35646 -1.03691e-14)
(2628.62 -8.47173 1.14351e-15)
(2628.73 -8.45338 1.13064e-14)
(2630.51 -6.46699 2.37387e-15)
(2627.81 -6.7421 -3.71277e-16)
(2628.29 -6.81836 5.25584e-17)
(2628.4 -6.80464 -9.37398e-17)
(2630.29 -5.44524 2.86352e-15)
(2627.57 -5.78735 -1.10272e-14)
(2628.05 -5.84323 1.2069e-14)
(2628.16 -5.82164 1.35902e-16)
(2629.99 -4.71948 -1.15275e-15)
(2627.13 -5.11217 -1.30568e-14)
(2627.63 -5.14897 -1.18823e-14)
(2627.58 -5.22626 1.47624e-14)
(2627.59 1.01694 8.813e-14)
(2630.26 -4.52896 2.53376e-15)
(2627.76 -4.93883 -1.30083e-14)
(2628.2 -4.96678 1.20044e-14)
(2628.16 -5.0383 1.8134e-14)
(2628.33 -5.0856 1.27554e-14)
(2630.12 -5.29095 6.49114e-15)
(2627.57 -5.64135 -6.93797e-16)
(2628.01 -5.68895 6.61194e-17)
(2627.97 -5.78216 -4.63187e-17)
(2628.17 -6.41118 -1.29008e-14)
(2630.03 -6.48397 1.08225e-17)
(2627.48 -6.7398 1.3055e-14)
(2627.92 -6.81465 -2.08767e-15)
(2628.04 -6.79602 -1.88163e-14)
)
;

boundaryField
{
    inlet
    {
        type            calculated;
        value           uniform (0 0 0);
    }
    outlet2
    {
        type            calculated;
        value           uniform (0 0 0);
    }
    outlet1
    {
        type            calculated;
        value           nonuniform List<vector> 0();
    }
    wall
    {
        type            calculated;
        value           uniform (0 0 0);
    }
    symmetryBottom
    {
        type            symmetry;
    }
    symmetryZ0
    {
        type            symmetry;
    }
    symmetryZ05
    {
        type            symmetry;
    }
    procBoundary1to0
    {
        type            processor;
        value           uniform (0 0 0);
    }
}


// ************************************************************************* //
