/*--------------------------------*- C++ -*----------------------------------*\
| =========                 |                                                 |
| \\      /  F ield         | OpenFOAM: The Open Source CFD Toolbox           |
|  \\    /   O peration     | Version:  2412                                  |
|   \\  /    A nd           | Website:  www.openfoam.com                      |
|    \\/     M anipulation  |                                                 |
\*---------------------------------------------------------------------------*/
FoamFile
{
    version     2.0;
    format      ascii;
    arch        "LSB;label=32;scalar=64";
    class       volScalarField;
    location    "5.8e-06";
    object      E;
}
// * * * * * * * * * * * * * * * * * * * * * * * * * * * * * * * * * * * * * //

dimensions      [0 0 0 0 0 0 0];

internalField   nonuniform List<scalar> 
84
(
97.1606
65.3641
68.3863
68.201
68.2134
68.217
68.221
68.6717
102.451
69.0123
72.248
72.1121
72.1857
72.2519
72.3206
72.7915
101.461
69.0462
71.7913
71.7031
71.7664
71.8259
71.8875
72.3563
101.057
68.3093
71.4856
71.3407
71.4026
71.4569
71.9236
100.863
67.8996
71.0771
70.9257
70.9808
71.0281
71.4928
100.307
67.515
70.6695
70.5126
70.561
70.6013
71.0639
99.7612
67.141
70.271
70.1089
70.1507
70.1842
70.6448
99.0006
67.0065
69.8554
69.7174
69.751
69.7781
70.2368
98.5618
66.4646
69.541
69.37
69.4
69.8565
98.0863
65.986
69.0486
68.8708
68.8932
69.3471
97.4508
65.634
68.6599
68.4778
68.4936
68.9455
96.4231
65.3844
68.2604
68.0862
68.095
68.0957
68.5461
)
;

boundaryField
{
    inlet
    {
        type            calculated;
        value           nonuniform List<scalar> 0();
    }
    outlet2
    {
        type            calculated;
        value           uniform 0;
    }
    outlet1
    {
        type            calculated;
        value           uniform 0;
    }
    wall
    {
        type            calculated;
        value           uniform 0;
    }
    symmetryBottom
    {
        type            symmetry;
    }
    symmetryZ0
    {
        type            symmetry;
    }
    symmetryZ05
    {
        type            symmetry;
    }
    procBoundary0to1
    {
        type            processor;
        value           uniform 0;
    }
}


// ************************************************************************* //
