/*--------------------------------*- C++ -*----------------------------------*\
| =========                 |                                                 |
| \\      /  F ield         | OpenFOAM: The Open Source CFD Toolbox           |
|  \\    /   O peration     | Version:  2412                                  |
|   \\  /    A nd           | Website:  www.openfoam.com                      |
|    \\/     M anipulation  |                                                 |
\*---------------------------------------------------------------------------*/
FoamFile
{
    version     2.0;
    format      ascii;
    arch        "LSB;label=32;scalar=64";
    class       volScalarField;
    location    "5.8e-06";
    object      rho;
}
// * * * * * * * * * * * * * * * * * * * * * * * * * * * * * * * * * * * * * //

dimensions      [0 0 0 0 0 0 0];

internalField   nonuniform List<scalar> 
84
(
2.74963e-05
1.85901e-05
1.9427e-05
1.93764e-05
1.938e-05
1.93812e-05
1.93825e-05
1.95088e-05
2.89609e-05
1.96039e-05
2.04991e-05
2.04624e-05
2.0483e-05
2.05015e-05
2.05208e-05
2.06527e-05
2.86851e-05
1.96116e-05
2.03714e-05
2.03477e-05
2.03654e-05
2.03821e-05
2.03993e-05
2.05307e-05
2.8572e-05
1.94064e-05
2.02854e-05
2.02461e-05
2.02634e-05
2.02786e-05
2.04093e-05
2.8517e-05
1.92915e-05
2.01708e-05
2.01297e-05
2.0145e-05
2.01583e-05
2.02885e-05
2.83607e-05
1.91831e-05
2.0056e-05
2.00133e-05
2.00268e-05
2.00381e-05
2.01677e-05
2.82039e-05
1.90756e-05
1.99414e-05
1.98973e-05
1.99089e-05
1.99182e-05
2.00473e-05
2.79867e-05
1.9034e-05
1.98216e-05
1.9784e-05
1.97932e-05
1.98007e-05
1.99292e-05
2.78428e-05
1.88662e-05
1.9716e-05
1.9669e-05
1.96769e-05
1.98047e-05
2.77582e-05
1.87649e-05
1.96134e-05
1.9565e-05
1.95714e-05
1.96987e-05
2.75681e-05
1.86583e-05
1.9496e-05
1.94463e-05
1.94507e-05
1.95774e-05
2.7276e-05
1.85865e-05
1.93819e-05
1.93344e-05
1.93368e-05
1.9337e-05
1.94633e-05
)
;

boundaryField
{
    inlet
    {
        type            calculated;
        value           nonuniform List<scalar> 0();
    }
    outlet2
    {
        type            calculated;
        value           uniform 0;
    }
    outlet1
    {
        type            calculated;
        value           uniform 0;
    }
    wall
    {
        type            calculated;
        value           uniform 0;
    }
    symmetryBottom
    {
        type            symmetry;
    }
    symmetryZ0
    {
        type            symmetry;
    }
    symmetryZ05
    {
        type            symmetry;
    }
    procBoundary0to1
    {
        type            processor;
        value           uniform 0;
    }
}


// ************************************************************************* //
