/*--------------------------------*- C++ -*----------------------------------*\
| =========                 |                                                 |
| \\      /  F ield         | OpenFOAM: The Open Source CFD Toolbox           |
|  \\    /   O peration     | Version:  2412                                  |
|   \\  /    A nd           | Website:  www.openfoam.com                      |
|    \\/     M anipulation  |                                                 |
\*---------------------------------------------------------------------------*/
FoamFile
{
    version     2.0;
    format      ascii;
    arch        "LSB;label=32;scalar=64";
    class       volVectorField;
    location    "5.8e-06";
    object      U;
}
// * * * * * * * * * * * * * * * * * * * * * * * * * * * * * * * * * * * * * //

dimensions      [0 0 0 0 0 0 0];

internalField   nonuniform List<vector> 
84
(
(2634.53 5.95211 6.01617e-15)
(2627.86 6.06365 -8.54251e-15)
(2629.41 6.14506 -1.46633e-14)
(2629.26 6.23456 9.12163e-15)
(2629.25 6.32625 -1.17326e-15)
(2629.23 6.4207 1.13361e-15)
(2629.21 6.518 1.39711e-14)
(2629.33 6.50822 1.94526e-15)
(2636.46 -6.0959 5.70389e-15)
(2629.91 -6.29691 -8.23642e-15)
(2631.46 -6.35649 -1.78754e-14)
(2631.35 -6.45537 2.10539e-15)
(2631.37 -6.55378 -3.35333e-14)
(2631.38 -6.65546 7.68774e-15)
(2631.4 -6.76033 2.71399e-14)
(2631.51 -6.7487 5.4364e-15)
(2636.26 -5.55065 -2.34396e-14)
(2630.04 -7.01568 6.58654e-15)
(2631.34 -6.27733 1.04829e-14)
(2631.26 -6.46197 -1.16281e-15)
(2631.28 -6.55482 -4.57576e-16)
(2631.29 -6.6568 1.31929e-14)
(2631.3 -6.7617 -1.15048e-14)
(2631.41 -6.75006 -1.25674e-14)
(2636.2 -5.76858 -2.27271e-14)
(2629.76 -6.41985 1.56946e-14)
(2631.3 -6.4544 -1.60773e-15)
(2631.18 -6.55655 -3.07843e-14)
(2631.2 -6.65814 3.03522e-14)
(2631.21 -6.76311 5.0673e-15)
(2631.32 -6.75146 -1.15936e-14)
(2636.21 -6.19891 -1.45093e-14)
(2629.65 -6.38373 -5.48403e-15)
(2631.21 -6.45933 5.70929e-16)
(2631.08 -6.55981 1.74429e-16)
(2631.1 -6.66156 -1.09092e-14)
(2631.11 -6.76663 8.88827e-15)
(2631.22 -6.75497 1.90554e-14)
(2636.11 -5.98694 -8.72996e-15)
(2629.53 -6.15527 1.7114e-14)
(2631.09 -6.23244 -1.70618e-15)
(2630.96 -6.3312 1.96113e-14)
(2630.98 -6.4315 -1.80493e-14)
(2630.99 -6.53512 1.51477e-14)
(2631.1 -6.52388 -3.27996e-14)
(2635.92 -4.81945 -3.13127e-18)
(2629.3 -4.96331 1.60131e-14)
(2630.86 -5.01893 -1.65591e-15)
(2630.73 -5.0991 4.67321e-17)
(2630.74 -5.1797 1.62146e-14)
(2630.75 -5.26303 2.08731e-15)
(2630.86 -5.25404 1.5996e-14)
(2635.75 -3.62001 2.08252e-16)
(2629.22 -4.82809 2.26092e-16)
(2630.68 -4.21176 -8.65843e-17)
(2630.57 -4.35261 -2.21161e-16)
(2630.58 -4.41757 -4.57227e-17)
(2630.58 -4.48982 1.01834e-16)
(2630.69 -4.48207 -1.32578e-14)
(2635.59 -3.45787 3.15609e-14)
(2628.88 -3.8385 -4.31945e-15)
(2630.46 -3.86479 -3.43187e-14)
(2630.33 -3.92701 -1.07826e-14)
(2630.33 -3.98939 1.88115e-14)
(2630.45 -3.98274 -2.10944e-15)
(2635.69 -3.63919 -1.12345e-14)
(2629.2 -3.72852 1.55571e-15)
(2630.73 -3.77598 -1.59205e-14)
(2630.61 -3.83352 1.76087e-14)
(2630.62 -3.89213 2.95266e-14)
(2630.73 -3.88592 -3.14421e-15)
(2635.64 -3.86376 -1.56681e-14)
(2629.08 -4.29075 2.14423e-15)
(2630.62 -4.2933 -8.58243e-17)
(2630.49 -4.36337 3.12905e-14)
(2630.5 -4.43122 3.21437e-14)
(2630.61 -4.424 1.10515e-15)
(2635.54 -0.554798 -1.12294e-15)
(2629.04 -5.80279 1.0831e-16)
(2630.56 -5.0144 -4.8225e-18)
(2630.43 -5.15475 1.89195e-14)
(2630.44 -5.2302 -2.01264e-15)
(2630.44 -5.31173 1.31331e-16)
(2630.55 -5.30326 -1.58523e-14)
)
;

boundaryField
{
    inlet
    {
        type            calculated;
        value           nonuniform List<vector> 0();
    }
    outlet2
    {
        type            calculated;
        value           uniform (0 0 0);
    }
    outlet1
    {
        type            calculated;
        value           uniform (0 0 0);
    }
    wall
    {
        type            calculated;
        value           uniform (0 0 0);
    }
    symmetryBottom
    {
        type            symmetry;
    }
    symmetryZ0
    {
        type            symmetry;
    }
    symmetryZ05
    {
        type            symmetry;
    }
    procBoundary0to1
    {
        type            processor;
        value           uniform (0 0 0);
    }
}


// ************************************************************************* //
