/*--------------------------------*- C++ -*----------------------------------*\
| =========                 |                                                 |
| \\      /  F ield         | OpenFOAM: The Open Source CFD Toolbox           |
|  \\    /   O peration     | Version:  2412                                  |
|   \\  /    A nd           | Website:  www.openfoam.com                      |
|    \\/     M anipulation  |                                                 |
\*---------------------------------------------------------------------------*/
FoamFile
{
    version     2.0;
    format      ascii;
    arch        "LSB;label=32;scalar=64";
    class       volScalarField;
    location    "8.6e-06";
    object      E_dof0;
}
// * * * * * * * * * * * * * * * * * * * * * * * * * * * * * * * * * * * * * //

dimensions      [0 0 0 0 0 0 0];

internalField   nonuniform List<scalar> 
84
(
116.484
11.354
19.942
116.519
11.4261
19.3278
116.541
11.4214
19.4079
116.542
11.4131
19.488
116.542
11.4048
19.5679
116.543
11.3965
19.6474
116.544
11.3882
19.7265
116.544
11.38
19.8051
116.545
11.3718
19.8834
116.546
11.3636
19.9612
116.547
11.3555
20.0386
116.548
11.3472
20.1156
60.8119
57.5408
55.1712
64.8411
61.2297
58.6977
64.3785
60.8055
58.3345
63.86
60.2083
60.9275
52.6167
63.3409
59.7507
60.0929
57.3688
62.8264
59.2816
59.6069
56.9727
62.316
58.8158
59.13
56.5201
61.8094
58.3537
58.6561
56.0886
61.3068
57.898
58.0826
58.3625
53.2812
60.8082
57.4428
57.6254
57.7324
55.1786
60.3134
56.9913
57.165
57.2593
54.7908
59.8228
56.5412
56.7994
54.366
)
;

boundaryField
{
    inlet
    {
        type            calculated;
        value           uniform 99.4306;
    }
    outlet2
    {
        type            calculated;
        value           uniform 99.4306;
    }
    outlet1
    {
        type            calculated;
        value           nonuniform List<scalar> 0();
    }
    wall
    {
        type            calculated;
        value           uniform 99.4306;
    }
    symmetryBottom
    {
        type            symmetry;
    }
    symmetryZ0
    {
        type            symmetry;
    }
    symmetryZ05
    {
        type            symmetry;
    }
    procBoundary1to0
    {
        type            processor;
        value           uniform 99.4306;
    }
}


// ************************************************************************* //
