/*--------------------------------*- C++ -*----------------------------------*\
| =========                 |                                                 |
| \\      /  F ield         | OpenFOAM: The Open Source CFD Toolbox           |
|  \\    /   O peration     | Version:  2412                                  |
|   \\  /    A nd           | Website:  www.openfoam.com                      |
|    \\/     M anipulation  |                                                 |
\*---------------------------------------------------------------------------*/
FoamFile
{
    version     2.0;
    format      ascii;
    arch        "LSB;label=32;scalar=64";
    class       volScalarField;
    location    "8.6e-06";
    object      rho;
}
// * * * * * * * * * * * * * * * * * * * * * * * * * * * * * * * * * * * * * //

dimensions      [0 0 0 0 0 0 0];

internalField   nonuniform List<scalar> 
84
(
3.28327e-05
3.39379e-06
5.76907e-06
3.28427e-05
3.41376e-06
5.59825e-06
3.28487e-05
3.41255e-06
5.62053e-06
3.28489e-05
3.41026e-06
5.64277e-06
3.28491e-05
3.40797e-06
5.66495e-06
3.28493e-05
3.4057e-06
5.68702e-06
3.28495e-05
3.40343e-06
5.70897e-06
3.28497e-05
3.40117e-06
5.73081e-06
3.28499e-05
3.39892e-06
5.75254e-06
3.28501e-05
3.39667e-06
5.77416e-06
3.28503e-05
3.39443e-06
5.79566e-06
3.28507e-05
3.39217e-06
5.81705e-06
1.72813e-05
1.6372e-05
1.57178e-05
1.84117e-05
1.74083e-05
1.67096e-05
1.82818e-05
1.7289e-05
1.6607e-05
1.81363e-05
1.71222e-05
1.73207e-05
1.50035e-05
1.79907e-05
1.69935e-05
1.70875e-05
1.63358e-05
1.78463e-05
1.68616e-05
1.6951e-05
1.62242e-05
1.7703e-05
1.67307e-05
1.68169e-05
1.60968e-05
1.75609e-05
1.66008e-05
1.66838e-05
1.59752e-05
1.74198e-05
1.64726e-05
1.65234e-05
1.66007e-05
1.51874e-05
1.72798e-05
1.63446e-05
1.63948e-05
1.64242e-05
1.57192e-05
1.71409e-05
1.62176e-05
1.62654e-05
1.62912e-05
1.56098e-05
1.70032e-05
1.60911e-05
1.61618e-05
1.54901e-05
)
;

boundaryField
{
    inlet
    {
        type            calculated;
        value           uniform 0;
    }
    outlet2
    {
        type            calculated;
        value           uniform 0;
    }
    outlet1
    {
        type            calculated;
        value           nonuniform List<scalar> 0();
    }
    wall
    {
        type            calculated;
        value           uniform 0;
    }
    symmetryBottom
    {
        type            symmetry;
    }
    symmetryZ0
    {
        type            symmetry;
    }
    symmetryZ05
    {
        type            symmetry;
    }
    procBoundary1to0
    {
        type            processor;
        value           uniform 0;
    }
}


// ************************************************************************* //
