/*--------------------------------*- C++ -*----------------------------------*\
| =========                 |                                                 |
| \\      /  F ield         | OpenFOAM: The Open Source CFD Toolbox           |
|  \\    /   O peration     | Version:  2412                                  |
|   \\  /    A nd           | Website:  www.openfoam.com                      |
|    \\/     M anipulation  |                                                 |
\*---------------------------------------------------------------------------*/
FoamFile
{
    version     2.0;
    format      ascii;
    arch        "LSB;label=32;scalar=64";
    class       volScalarField;
    location    "8.6e-06";
    object      T;
}
// * * * * * * * * * * * * * * * * * * * * * * * * * * * * * * * * * * * * * //

dimensions      [0 0 0 0 0 0 0];

internalField   nonuniform List<scalar> 
84
(
200.06
193.108
198.119
200.023
192.899
199.378
200.047
192.919
199.44
200.047
192.902
199.459
200.047
192.884
199.478
200.047
192.867
199.496
200.047
192.85
199.515
200.047
192.832
199.532
200.047
192.815
199.55
200.047
192.798
199.566
200.047
192.78
199.583
200.047
192.765
199.6
203.297
203.159
203.077
200.036
199.998
199.926
200.031
199.995
199.929
200.032
199.989
199.997
199.837
200.032
199.989
200.007
199.883
200.031
199.989
200.003
199.922
200.031
199.989
200.003
199.923
200.031
199.989
200.003
199.927
200.031
199.989
199.997
199.992
199.861
200.031
199.989
199.996
200.006
199.882
200.031
199.989
199.996
200.006
199.866
200.031
199.99
200.004
199.914
)
;

boundaryField
{
    inlet
    {
        type            calculated;
        value           uniform 0;
    }
    outlet2
    {
        type            calculated;
        value           uniform 0;
    }
    outlet1
    {
        type            calculated;
        value           nonuniform List<scalar> 0();
    }
    wall
    {
        type            calculated;
        value           uniform 0;
    }
    symmetryBottom
    {
        type            symmetry;
    }
    symmetryZ0
    {
        type            symmetry;
    }
    symmetryZ05
    {
        type            symmetry;
    }
    procBoundary1to0
    {
        type            processor;
        value           uniform 0;
    }
}


// ************************************************************************* //
