/*--------------------------------*- C++ -*----------------------------------*\
| =========                 |                                                 |
| \\      /  F ield         | OpenFOAM: The Open Source CFD Toolbox           |
|  \\    /   O peration     | Version:  2412                                  |
|   \\  /    A nd           | Website:  www.openfoam.com                      |
|    \\/     M anipulation  |                                                 |
\*---------------------------------------------------------------------------*/
FoamFile
{
    version     2.0;
    format      ascii;
    arch        "LSB;label=32;scalar=64";
    class       volVectorField;
    location    "5e-06";
    object      U;
}
// * * * * * * * * * * * * * * * * * * * * * * * * * * * * * * * * * * * * * //

dimensions      [0 0 0 0 0 0 0];

internalField   nonuniform List<vector> 
84
(
(2634.86 5.15961 5.10361e-15)
(2629.26 5.256 -7.25696e-15)
(2630.34 5.32775 -1.31356e-14)
(2630.25 5.40574 7.68729e-15)
(2630.24 5.48575 -8.20366e-16)
(2630.22 5.56818 9.30278e-16)
(2630.2 5.65311 1.25033e-14)
(2630.3 5.64578 1.89343e-15)
(2636.53 -5.2583 5.05945e-15)
(2631.01 -5.42203 -6.78519e-15)
(2632.11 -5.48063 -1.57027e-14)
(2632.04 -5.56489 1.6011e-15)
(2632.06 -5.64981 -2.98076e-14)
(2632.07 -5.73746 6.14415e-15)
(2632.08 -5.82786 2.3676e-14)
(2632.18 -5.81919 4.74232e-15)
(2636.37 -4.84146 -2.09806e-14)
(2631.09 -5.93236 5.26864e-15)
(2632.02 -5.43213 9.16976e-15)
(2631.97 -5.56878 -8.63044e-16)
(2631.98 -5.6508 -3.58033e-16)
(2631.99 -5.7386 1.17707e-14)
(2632 -5.82905 -1.03315e-14)
(2632.1 -5.82036 -1.13691e-14)
(2636.32 -5.01449 -2.04127e-14)
(2630.88 -5.52169 1.33644e-14)
(2631.97 -5.5651 -1.20024e-15)
(2631.9 -5.65213 -2.67592e-14)
(2631.91 -5.73976 2.61191e-14)
(2631.92 -5.83025 4.65085e-15)
(2632.01 -5.82156 -1.04057e-14)
(2636.32 -5.34506 -1.27235e-14)
(2630.79 -5.49975 -4.86282e-15)
(2631.89 -5.56854 4.33244e-16)
(2631.82 -5.6547 1.32892e-16)
(2631.83 -5.74245 -9.92712e-15)
(2631.84 -5.83302 7.52553e-15)
(2631.93 -5.82432 1.66523e-14)
(2636.23 -5.1481 -7.68863e-15)
(2630.69 -5.28944 1.47342e-14)
(2631.79 -5.35848 -1.27191e-15)
(2631.71 -5.44275 1.72487e-14)
(2631.72 -5.52873 -1.55787e-14)
(2631.73 -5.61753 1.32906e-14)
(2631.82 -5.60919 -2.88429e-14)
(2636.07 -4.1464 -2.4767e-18)
(2630.49 -4.2644 1.41411e-14)
(2631.6 -4.31633 -1.2441e-15)
(2631.52 -4.38451 1.66873e-17)
(2631.53 -4.45366 1.43425e-14)
(2631.53 -4.5251 1.93783e-15)
(2631.62 -4.51844 1.41288e-14)
(2635.93 -3.15955 1.58642e-16)
(2630.42 -4.04839 1.58522e-16)
(2631.45 -3.63175 -6.70807e-17)
(2631.38 -3.73377 -1.64395e-16)
(2631.39 -3.79085 -3.4621e-17)
(2631.39 -3.85244 7.1926e-17)
(2631.48 -3.84674 -1.20476e-14)
(2635.8 -3.00588 2.74819e-14)
(2630.17 -3.29916 -3.08213e-15)
(2631.28 -3.3293 -3.02165e-14)
(2631.2 -3.38231 -1.02338e-14)
(2631.2 -3.43601 1.6382e-14)
(2631.3 -3.43108 -1.43592e-15)
(2635.87 -3.15067 -9.89571e-15)
(2630.39 -3.22597 1.10888e-15)
(2631.47 -3.26876 -1.39546e-14)
(2631.39 -3.31864 1.53277e-14)
(2631.4 -3.36964 2.57731e-14)
(2631.49 -3.36499 -2.42211e-15)
(2635.83 -3.36762 -1.4e-14)
(2630.3 -3.69059 1.51648e-15)
(2631.39 -3.70827 -4.76521e-17)
(2631.31 -3.76751 2.70428e-14)
(2631.31 -3.82628 2.80591e-14)
(2631.41 -3.82091 1.20031e-15)
(2635.74 -0.424575 -8.85279e-16)
(2630.26 -4.89422 6.80278e-17)
(2631.33 -4.3457 -2.58927e-18)
(2631.25 -4.45136 1.65785e-14)
(2631.26 -4.51783 -1.50298e-15)
(2631.26 -4.58835 8.33894e-17)
(2631.35 -4.58205 -1.41282e-14)
)
;

boundaryField
{
    inlet
    {
        type            calculated;
        value           nonuniform List<vector> 0();
    }
    outlet2
    {
        type            calculated;
        value           uniform (0 0 0);
    }
    outlet1
    {
        type            calculated;
        value           uniform (0 0 0);
    }
    wall
    {
        type            calculated;
        value           uniform (0 0 0);
    }
    symmetryBottom
    {
        type            symmetry;
    }
    symmetryZ0
    {
        type            symmetry;
    }
    symmetryZ05
    {
        type            symmetry;
    }
    procBoundary0to1
    {
        type            processor;
        value           uniform (0 0 0);
    }
}


// ************************************************************************* //
