/*--------------------------------*- C++ -*----------------------------------*\
| =========                 |                                                 |
| \\      /  F ield         | OpenFOAM: The Open Source CFD Toolbox           |
|  \\    /   O peration     | Version:  2412                                  |
|   \\  /    A nd           | Website:  www.openfoam.com                      |
|    \\/     M anipulation  |                                                 |
\*---------------------------------------------------------------------------*/
FoamFile
{
    version     2.0;
    format      ascii;
    arch        "LSB;label=32;scalar=64";
    class       volScalarField;
    location    "9.2e-06";
    object      rho_dof0;
}
// * * * * * * * * * * * * * * * * * * * * * * * * * * * * * * * * * * * * * //

dimensions      [0 0 0 0 0 0 0];

internalField   nonuniform List<scalar> 
84
(
2.88473e-05
1.48301e-05
1.58545e-05
1.58094e-05
1.58162e-05
1.5822e-05
1.58132e-05
1.6004e-05
3.08507e-05
1.58842e-05
1.6995e-05
1.69644e-05
1.69896e-05
1.70143e-05
1.7026e-05
1.72273e-05
3.04443e-05
1.59082e-05
1.68524e-05
1.68345e-05
1.68572e-05
1.688e-05
1.68896e-05
1.70896e-05
3.01123e-05
1.56636e-05
1.6735e-05
1.67024e-05
1.67246e-05
1.67314e-05
1.69301e-05
3.01346e-05
1.55048e-05
1.65863e-05
1.65507e-05
1.65704e-05
1.65744e-05
1.67718e-05
2.98782e-05
1.53676e-05
1.6438e-05
1.64003e-05
1.64175e-05
1.64189e-05
1.6615e-05
2.96198e-05
1.52324e-05
1.62908e-05
1.62514e-05
1.62661e-05
1.62649e-05
1.64596e-05
2.92845e-05
1.51623e-05
1.6139e-05
1.6104e-05
1.6116e-05
1.61122e-05
1.63057e-05
2.89983e-05
1.49793e-05
1.60074e-05
1.59655e-05
1.59611e-05
1.61531e-05
2.88709e-05
1.48358e-05
1.58624e-05
1.58182e-05
1.58113e-05
1.6002e-05
2.86018e-05
1.47043e-05
1.57182e-05
1.56722e-05
1.56628e-05
1.58523e-05
2.80963e-05
1.46075e-05
1.55723e-05
1.55265e-05
1.55295e-05
1.55158e-05
1.57041e-05
)
;

boundaryField
{
    inlet
    {
        type            calculated;
        value           nonuniform List<scalar> 0();
    }
    outlet2
    {
        type            calculated;
        value           uniform 2.81085e-05;
    }
    outlet1
    {
        type            calculated;
        value           uniform 2.81085e-05;
    }
    wall
    {
        type            calculated;
        value           uniform 2.81085e-05;
    }
    symmetryBottom
    {
        type            symmetry;
    }
    symmetryZ0
    {
        type            symmetry;
    }
    symmetryZ05
    {
        type            symmetry;
    }
    procBoundary0to1
    {
        type            processor;
        value           uniform 2.81085e-05;
    }
}


// ************************************************************************* //
