/*--------------------------------*- C++ -*----------------------------------*\
| =========                 |                                                 |
| \\      /  F ield         | OpenFOAM: The Open Source CFD Toolbox           |
|  \\    /   O peration     | Version:  2412                                  |
|   \\  /    A nd           | Website:  www.openfoam.com                      |
|    \\/     M anipulation  |                                                 |
\*---------------------------------------------------------------------------*/
FoamFile
{
    version     2.0;
    format      ascii;
    arch        "LSB;label=32;scalar=64";
    class       volVectorField;
    location    "9.2e-06";
    object      U;
}
// * * * * * * * * * * * * * * * * * * * * * * * * * * * * * * * * * * * * * //

dimensions      [0 0 0 0 0 0 0];

internalField   nonuniform List<vector> 
84
(
(2636.39 -0.173804 1.12854e-14)
(2624.33 -0.204715 -1.18017e-14)
(2626.91 -0.20489 -3.11738e-14)
(2626.74 -0.211328 1.56422e-14)
(2626.74 -0.217658 -1.58702e-15)
(2626.74 -0.224269 -1.07123e-15)
(2626.71 -0.231958 2.79307e-14)
(2626.95 -0.230035 2.64378e-15)
(2637.82 -9.51315 1.03645e-14)
(2625.91 -9.80666 -1.08096e-14)
(2628.48 -9.9038 -3.6154e-14)
(2628.33 -10.0536 8.09939e-15)
(2628.36 -10.2044 -6.34172e-14)
(2628.39 -10.3591 7.96429e-15)
(2628.38 -10.5352 5.06549e-14)
(2628.61 -10.4999 9.0752e-15)
(2637.55 -8.93645 -4.69298e-14)
(2626.16 -11.066 1.0227e-14)
(2628.33 -9.99371 1.77132e-14)
(2628.22 -10.2486 -1.33855e-15)
(2628.25 -10.3996 -3.52794e-15)
(2628.27 -10.5604 2.76684e-14)
(2628.26 -10.7432 -1.88883e-14)
(2628.49 -10.7066 -2.27898e-14)
(2637.33 -8.69663 -4.69272e-14)
(2625.75 -10.2819 3.19259e-14)
(2628.24 -10.2382 2.05593e-15)
(2628.1 -10.4043 -6.03878e-14)
(2628.12 -10.5647 5.4622e-14)
(2628.11 -10.7477 9.60665e-15)
(2628.34 -10.711 -1.78957e-14)
(2637.46 -9.82039 -2.49311e-14)
(2625.53 -10.1281 -9.38242e-15)
(2628.1 -10.2468 7.13022e-16)
(2627.95 -10.4056 1.15335e-15)
(2627.98 -10.5663 -1.93499e-14)
(2627.96 -10.7493 1.18666e-14)
(2628.19 -10.7127 3.46918e-14)
(2637.32 -9.84251 -1.64899e-14)
(2625.39 -10.1268 3.47331e-14)
(2627.96 -10.2484 -5.43798e-15)
(2627.8 -10.4072 4.0604e-14)
(2627.83 -10.5679 -3.72946e-14)
(2627.81 -10.751 3.29846e-14)
(2628.05 -10.7143 -5.61787e-14)
(2637.19 -9.83923 -1.51369e-15)
(2625.25 -10.1356 3.26269e-14)
(2627.81 -10.2492 -2.30687e-15)
(2627.66 -10.4087 -2.10436e-15)
(2627.68 -10.5695 3.20557e-14)
(2627.66 -10.7526 1.90604e-15)
(2627.9 -10.716 2.94774e-14)
(2636.98 -9.13931 2.33677e-16)
(2625.27 -11.2737 5.2012e-16)
(2627.65 -10.151 -1.09391e-16)
(2627.51 -10.4157 -4.0731e-16)
(2627.53 -10.5709 1.18392e-16)
(2627.51 -10.7543 1.93624e-15)
(2627.75 -10.7176 -2.41235e-14)
(2636.8 -8.79908 5.83985e-14)
(2625 -10.4501 -2.54078e-15)
(2627.53 -10.4023 -6.15454e-14)
(2627.38 -10.573 -2.28104e-14)
(2627.36 -10.7559 3.49486e-14)
(2627.6 -10.7192 -2.00489e-15)
(2636.78 -9.98346 -2.02101e-14)
(2624.82 -10.287 5.40108e-15)
(2627.39 -10.4113 -3.47128e-14)
(2627.23 -10.5744 3.07491e-14)
(2627.21 -10.7576 5.69316e-14)
(2627.45 -10.7209 -5.26102e-15)
(2636.63 -9.39652 -2.73318e-14)
(2624.68 -10.3964 3.78226e-15)
(2627.24 -10.4074 -4.40782e-15)
(2627.08 -10.5762 5.38039e-14)
(2627.06 -10.7593 6.13531e-14)
(2627.3 -10.7225 1.16399e-15)
(2636.38 -0.571875 -1.42507e-15)
(2624.62 -12.5026 2.20825e-16)
(2627.09 -10.093 -2.89728e-15)
(2626.93 -10.4191 3.86179e-14)
(2626.94 -10.5722 -3.0707e-15)
(2626.9 -10.7561 2.66163e-15)
(2627.15 -10.7197 -3.11552e-14)
)
;

boundaryField
{
    inlet
    {
        type            calculated;
        value           nonuniform List<vector> 0();
    }
    outlet2
    {
        type            calculated;
        value           uniform (0 0 0);
    }
    outlet1
    {
        type            calculated;
        value           uniform (0 0 0);
    }
    wall
    {
        type            calculated;
        value           uniform (0 0 0);
    }
    symmetryBottom
    {
        type            symmetry;
    }
    symmetryZ0
    {
        type            symmetry;
    }
    symmetryZ05
    {
        type            symmetry;
    }
    procBoundary0to1
    {
        type            processor;
        value           uniform (0 0 0);
    }
}


// ************************************************************************* //
