/*--------------------------------*- C++ -*----------------------------------*\
| =========                 |                                                 |
| \\      /  F ield         | OpenFOAM: The Open Source CFD Toolbox           |
|  \\    /   O peration     | Version:  2412                                  |
|   \\  /    A nd           | Website:  www.openfoam.com                      |
|    \\/     M anipulation  |                                                 |
\*---------------------------------------------------------------------------*/
FoamFile
{
    version     2.0;
    format      ascii;
    arch        "LSB;label=32;scalar=64";
    class       volScalarField;
    location    "2e-06";
    object      rho;
}
// * * * * * * * * * * * * * * * * * * * * * * * * * * * * * * * * * * * * * //

dimensions      [0 0 0 0 0 0 0];

internalField   nonuniform List<scalar> 
84
(
2.81088e-05
1.98578e-05
2.04685e-05
2.81099e-05
1.98603e-05
2.04708e-05
2.81096e-05
1.98601e-05
2.04706e-05
2.81096e-05
1.98601e-05
2.04706e-05
2.81096e-05
1.98601e-05
2.04706e-05
2.81096e-05
1.98601e-05
2.04706e-05
2.81096e-05
1.98601e-05
2.04706e-05
2.81096e-05
1.98601e-05
2.04706e-05
2.81096e-05
1.98601e-05
2.04706e-05
2.81096e-05
1.98601e-05
2.04706e-05
2.81096e-05
1.98601e-05
2.04706e-05
2.81096e-05
1.98594e-05
2.047e-05
2.4854e-05
2.47105e-05
2.47597e-05
2.53045e-05
2.51522e-05
2.52024e-05
2.52579e-05
2.51065e-05
2.51565e-05
2.52114e-05
2.50609e-05
2.50693e-05
2.46916e-05
2.51649e-05
2.50153e-05
2.5023e-05
2.50704e-05
2.51185e-05
2.49698e-05
2.49768e-05
2.50241e-05
2.50722e-05
2.49243e-05
2.49307e-05
2.49779e-05
2.50261e-05
2.48791e-05
2.48848e-05
2.49319e-05
2.49793e-05
2.48333e-05
2.48382e-05
2.48402e-05
2.46984e-05
2.49346e-05
2.47894e-05
2.47937e-05
2.4795e-05
2.48425e-05
2.48882e-05
2.47439e-05
2.47475e-05
2.47482e-05
2.47994e-05
2.48424e-05
2.46989e-05
2.47019e-05
2.47488e-05
)
;

boundaryField
{
    inlet
    {
        type            calculated;
        value           uniform 0;
    }
    outlet2
    {
        type            calculated;
        value           uniform 0;
    }
    outlet1
    {
        type            calculated;
        value           nonuniform List<scalar> 0();
    }
    wall
    {
        type            calculated;
        value           uniform 0;
    }
    symmetryBottom
    {
        type            symmetry;
    }
    symmetryZ0
    {
        type            symmetry;
    }
    symmetryZ05
    {
        type            symmetry;
    }
    procBoundary1to0
    {
        type            processor;
        value           uniform 0;
    }
}


// ************************************************************************* //
