/*--------------------------------*- C++ -*----------------------------------*\
| =========                 |                                                 |
| \\      /  F ield         | OpenFOAM: The Open Source CFD Toolbox           |
|  \\    /   O peration     | Version:  2412                                  |
|   \\  /    A nd           | Website:  www.openfoam.com                      |
|    \\/     M anipulation  |                                                 |
\*---------------------------------------------------------------------------*/
FoamFile
{
    version     2.0;
    format      ascii;
    arch        "LSB;label=32;scalar=64";
    class       volVectorField;
    location    "2e-06";
    object      rhoU_dof0;
}
// * * * * * * * * * * * * * * * * * * * * * * * * * * * * * * * * * * * * * //

dimensions      [0 0 0 0 0 0 0];

internalField   nonuniform List<vector> 
84
(
(0.0741056 -6.94376e-08 0)
(0.0522321 -2.38875e-07 0)
(0.0538604 -2.13594e-07 -6.24512e-20)
(0.0741086 -5.19071e-05 0)
(0.0522387 -4.04383e-05 0)
(0.0538665 -4.13482e-05 -6.24508e-20)
(0.0741078 -5.1831e-05 0)
(0.0522381 -4.0378e-05 0)
(0.0538659 -4.12865e-05 9.52377e-20)
(0.0741078 -5.1831e-05 0)
(0.0522381 -4.0378e-05 0)
(0.0538659 -4.12865e-05 -1.2179e-19)
(0.0741078 -5.1831e-05 0)
(0.0522381 -4.0378e-05 0)
(0.0538659 -4.12865e-05 -2.06093e-19)
(0.0741078 -5.1831e-05 0)
(0.0522381 -4.0378e-05 0)
(0.0538659 -4.12865e-05 1.17096e-19)
(0.0741078 -5.1831e-05 0)
(0.0522381 -4.0378e-05 0)
(0.0538659 -4.12865e-05 -1.45209e-19)
(0.0741078 -5.1831e-05 0)
(0.0522381 -4.0378e-05 0)
(0.0538659 -4.12865e-05 -1.70184e-19)
(0.0741078 -5.1831e-05 0)
(0.0522381 -4.0378e-05 0)
(0.0538659 -4.12865e-05 6.08879e-20)
(0.0741078 -5.1831e-05 0)
(0.0522381 -4.0378e-05 0)
(0.0538659 -4.12865e-05 -1.43653e-19)
(0.0741078 -5.1831e-05 0)
(0.0522381 -4.03775e-05 0)
(0.0538659 -4.12861e-05 -3.57546e-19)
(0.0741079 -5.18383e-05 0)
(0.0522363 -4.02007e-05 0)
(0.0538644 -4.11358e-05 0)
(0.0654688 5.17699e-05 1.98697e-21)
(0.0650863 5.07536e-05 5.45043e-20)
(0.065217 5.08595e-05 5.4171e-21)
(0.0666728 -5.16255e-05 1.8971e-21)
(0.0662667 -5.2068e-05 5.84801e-20)
(0.0663997 -5.21403e-05 -4.62341e-22)
(0.0665493 -5.15412e-05 -3.10634e-21)
(0.0661455 -5.19826e-05 -2.67346e-20)
(0.066278 -5.20388e-05 -1.16906e-19)
(0.0664259 -5.14557e-05 4.03873e-21)
(0.0660246 -5.18973e-05 -9.68804e-22)
(0.0660469 -5.26506e-05 2.61878e-23)
(0.0650457 1.13638e-06 8.21614e-20)
(0.0663027 -5.13737e-05 -2.43742e-20)
(0.0659038 -5.18154e-05 -9.26414e-23)
(0.0659243 -5.25663e-05 -8.89858e-22)
(0.0660499 -5.26349e-05 8.26728e-20)
(0.0661794 -4.87634e-05 -3.942e-21)
(0.0657828 -4.92582e-05 -5.84019e-20)
(0.0658015 -4.99734e-05 1.48337e-22)
(0.0659269 -5.00392e-05 5.58765e-20)
(0.0660557 -3.89716e-05 4.46604e-21)
(0.0656615 -3.96477e-05 -1.95801e-22)
(0.0656783 -4.02165e-05 -3.52204e-22)
(0.0658036 -4.027e-05 -4.62681e-22)
(0.0659331 -3.26504e-05 6.07115e-21)
(0.0655413 -3.34437e-05 -5.57289e-20)
(0.0655564 -3.39197e-05 6.00495e-20)
(0.0656812 -3.39535e-05 4.81112e-22)
(0.0658091 -2.93673e-05 -2.00524e-21)
(0.0654195 -3.02169e-05 -8.59109e-20)
(0.0654327 -3.06408e-05 -8.47428e-20)
(0.0654379 -3.10858e-05 9.18144e-20)
(0.0650634 1.2182e-06 5.75806e-19)
(0.0656913 -2.93239e-05 5.08972e-21)
(0.0653044 -3.01698e-05 -8.62975e-20)
(0.0653159 -3.05875e-05 5.81572e-20)
(0.0653194 -3.10265e-05 1.40319e-19)
(0.0654452 -3.11261e-05 9.04388e-20)
(0.0655685 -3.30885e-05 1.24484e-20)
(0.0651839 -3.38602e-05 -2.24123e-22)
(0.0651936 -3.43341e-05 1.13514e-22)
(0.0651954 -3.48399e-05 -2.28505e-23)
(0.0653312 -3.56544e-05 -8.47679e-20)
(0.0654475 -3.99567e-05 6.3549e-23)
(0.0650651 -4.05857e-05 8.23891e-20)
(0.0650731 -4.11587e-05 -2.57671e-21)
(0.0651974 -4.12086e-05 -1.44579e-19)
)
;

boundaryField
{
    inlet
    {
        type            calculated;
        value           uniform (0.0741049 0 0);
    }
    outlet2
    {
        type            calculated;
        value           uniform (0.0741049 0 0);
    }
    outlet1
    {
        type            calculated;
        value           nonuniform List<vector> 0();
    }
    wall
    {
        type            calculated;
        value           uniform (0.0741049 0 0);
    }
    symmetryBottom
    {
        type            symmetry;
    }
    symmetryZ0
    {
        type            symmetry;
    }
    symmetryZ05
    {
        type            symmetry;
    }
    procBoundary1to0
    {
        type            processor;
        value           uniform (0.0741049 0 0);
    }
}


// ************************************************************************* //
