/*--------------------------------*- C++ -*----------------------------------*\
| =========                 |                                                 |
| \\      /  F ield         | OpenFOAM: The Open Source CFD Toolbox           |
|  \\    /   O peration     | Version:  2412                                  |
|   \\  /    A nd           | Website:  www.openfoam.com                      |
|    \\/     M anipulation  |                                                 |
\*---------------------------------------------------------------------------*/
FoamFile
{
    version     2.0;
    format      ascii;
    arch        "LSB;label=32;scalar=64";
    class       volScalarField;
    location    "2e-06";
    object      T;
}
// * * * * * * * * * * * * * * * * * * * * * * * * * * * * * * * * * * * * * //

dimensions      [0 0 0 0 0 0 0];

internalField   nonuniform List<scalar> 
84
(
200.002
199.971
200.008
199.996
199.959
199.997
199.995
199.958
199.996
199.995
199.958
199.996
199.995
199.958
199.996
199.995
199.958
199.996
199.995
199.958
199.996
199.995
199.958
199.996
199.995
199.958
199.996
199.995
199.958
199.996
199.995
199.958
199.996
199.995
199.953
199.992
201.209
201.189
201.19
200.004
199.999
200
200.004
199.999
200
200.004
199.999
200
200.003
200.005
200
200
200
200.23
200.222
200.225
200.225
201.086
201.067
201.083
201.082
201.89
201.861
201.888
201.887
205.025
204.952
205.027
205.102
199.85
197.988
198.008
197.978
197.949
197.926
199.525
199.526
199.52
199.513
199.524
199.804
199.802
199.799
199.799
)
;

boundaryField
{
    inlet
    {
        type            calculated;
        value           uniform 0;
    }
    outlet2
    {
        type            calculated;
        value           uniform 0;
    }
    outlet1
    {
        type            calculated;
        value           nonuniform List<scalar> 0();
    }
    wall
    {
        type            calculated;
        value           uniform 0;
    }
    symmetryBottom
    {
        type            symmetry;
    }
    symmetryZ0
    {
        type            symmetry;
    }
    symmetryZ05
    {
        type            symmetry;
    }
    procBoundary1to0
    {
        type            processor;
        value           uniform 0;
    }
}


// ************************************************************************* //
