/*--------------------------------*- C++ -*----------------------------------*\
| =========                 |                                                 |
| \\      /  F ield         | OpenFOAM: The Open Source CFD Toolbox           |
|  \\    /   O peration     | Version:  2412                                  |
|   \\  /    A nd           | Website:  www.openfoam.com                      |
|    \\/     M anipulation  |                                                 |
\*---------------------------------------------------------------------------*/
FoamFile
{
    version     2.0;
    format      ascii;
    arch        "LSB;label=32;scalar=64";
    class       volScalarField;
    location    "4.4e-06";
    object      E;
}
// * * * * * * * * * * * * * * * * * * * * * * * * * * * * * * * * * * * * * //

dimensions      [0 0 0 0 0 0 0];

internalField   nonuniform List<scalar> 
84
(
98.1644
72.9498
74.7587
74.6762
74.6816
74.6841
74.6867
75.0523
102.214
76.0296
77.9559
77.919
77.9746
78.0288
78.0848
78.4628
101.531
75.9503
77.6007
77.5816
77.6307
77.6794
77.7297
78.1064
101.211
75.4347
77.3306
77.2853
77.3315
77.376
77.7515
101.007
75.1004
76.9946
76.9439
76.9847
77.0235
77.3977
100.585
74.7784
76.6601
76.6045
76.6397
76.6729
77.0459
100.172
74.4644
76.3331
76.2726
76.3025
76.3302
76.702
99.628
74.2903
76.0008
75.9483
75.9724
75.9948
76.3653
99.2937
73.8935
75.7344
75.6656
75.686
76.0554
98.8893
73.4875
75.3192
75.2443
75.2582
75.6259
98.4243
73.1883
75.0015
74.9222
74.9308
75.2974
97.6295
72.9484
74.6735
74.5952
74.5984
74.599
74.9645
)
;

boundaryField
{
    inlet
    {
        type            calculated;
        value           nonuniform List<scalar> 0();
    }
    outlet2
    {
        type            calculated;
        value           uniform 0;
    }
    outlet1
    {
        type            calculated;
        value           uniform 0;
    }
    wall
    {
        type            calculated;
        value           uniform 0;
    }
    symmetryBottom
    {
        type            symmetry;
    }
    symmetryZ0
    {
        type            symmetry;
    }
    symmetryZ05
    {
        type            symmetry;
    }
    procBoundary0to1
    {
        type            processor;
        value           uniform 0;
    }
}


// ************************************************************************* //
