/*--------------------------------*- C++ -*----------------------------------*\
| =========                 |                                                 |
| \\      /  F ield         | OpenFOAM: The Open Source CFD Toolbox           |
|  \\    /   O peration     | Version:  2412                                  |
|   \\  /    A nd           | Website:  www.openfoam.com                      |
|    \\/     M anipulation  |                                                 |
\*---------------------------------------------------------------------------*/
FoamFile
{
    version     2.0;
    format      ascii;
    arch        "LSB;label=32;scalar=64";
    class       volScalarField;
    location    "4.4e-06";
    object      rho;
}
// * * * * * * * * * * * * * * * * * * * * * * * * * * * * * * * * * * * * * //

dimensions      [0 0 0 0 0 0 0];

internalField   nonuniform List<scalar> 
84
(
2.77706e-05
2.07122e-05
2.12129e-05
2.11905e-05
2.11921e-05
2.11929e-05
2.11938e-05
2.12963e-05
2.88913e-05
2.1567e-05
2.20998e-05
2.20901e-05
2.21056e-05
2.21208e-05
2.21365e-05
2.22423e-05
2.87012e-05
2.15438e-05
2.20005e-05
2.19955e-05
2.20093e-05
2.20229e-05
2.2037e-05
2.21425e-05
2.86116e-05
2.14002e-05
2.19247e-05
2.19125e-05
2.19255e-05
2.19379e-05
2.2043e-05
2.85542e-05
2.13065e-05
2.18305e-05
2.18169e-05
2.18283e-05
2.18391e-05
2.19439e-05
2.84356e-05
2.12158e-05
2.17363e-05
2.17213e-05
2.17311e-05
2.17404e-05
2.18448e-05
2.83167e-05
2.11256e-05
2.16423e-05
2.16259e-05
2.16342e-05
2.16419e-05
2.1746e-05
2.81612e-05
2.10736e-05
2.15464e-05
2.15321e-05
2.15387e-05
2.15449e-05
2.16487e-05
2.80516e-05
2.09493e-05
2.14577e-05
2.14387e-05
2.14441e-05
2.15474e-05
2.79754e-05
2.08635e-05
2.13707e-05
2.13504e-05
2.13545e-05
2.14575e-05
2.78359e-05
2.0773e-05
2.12747e-05
2.12531e-05
2.12555e-05
2.13582e-05
2.76102e-05
2.07042e-05
2.11811e-05
2.11597e-05
2.11606e-05
2.11608e-05
2.12631e-05
)
;

boundaryField
{
    inlet
    {
        type            calculated;
        value           nonuniform List<scalar> 0();
    }
    outlet2
    {
        type            calculated;
        value           uniform 0;
    }
    outlet1
    {
        type            calculated;
        value           uniform 0;
    }
    wall
    {
        type            calculated;
        value           uniform 0;
    }
    symmetryBottom
    {
        type            symmetry;
    }
    symmetryZ0
    {
        type            symmetry;
    }
    symmetryZ05
    {
        type            symmetry;
    }
    procBoundary0to1
    {
        type            processor;
        value           uniform 0;
    }
}


// ************************************************************************* //
