/*--------------------------------*- C++ -*----------------------------------*\
| =========                 |                                                 |
| \\      /  F ield         | OpenFOAM: The Open Source CFD Toolbox           |
|  \\    /   O peration     | Version:  2412                                  |
|   \\  /    A nd           | Website:  www.openfoam.com                      |
|    \\/     M anipulation  |                                                 |
\*---------------------------------------------------------------------------*/
FoamFile
{
    version     2.0;
    format      ascii;
    arch        "LSB;label=32;scalar=64";
    class       volVectorField;
    location    "1.8e-06";
    object      rhoU_dof0;
}
// * * * * * * * * * * * * * * * * * * * * * * * * * * * * * * * * * * * * * //

dimensions      [0 0 0 0 0 0 0];

internalField   nonuniform List<vector> 
84
(
(0.0741055 -5.58101e-08 0)
(0.0542646 -2.1234e-07 0)
(0.0555899 -1.9174e-07 -5.6206e-20)
(0.0741079 -4.71005e-05 0)
(0.0542705 -3.77636e-05 0)
(0.0555953 -3.8423e-05 -5.62057e-20)
(0.0741073 -4.70383e-05 0)
(0.05427 -3.77131e-05 0)
(0.0555948 -3.83717e-05 8.74312e-20)
(0.0741073 -4.70383e-05 0)
(0.05427 -3.77131e-05 0)
(0.0555948 -3.83717e-05 -1.13981e-19)
(0.0741073 -4.70383e-05 0)
(0.05427 -3.77131e-05 0)
(0.0555948 -3.83717e-05 -1.90479e-19)
(0.0741073 -4.70383e-05 0)
(0.05427 -3.77131e-05 0)
(0.0555948 -3.83717e-05 1.09289e-19)
(0.0741073 -4.70383e-05 0)
(0.05427 -3.77131e-05 0)
(0.0555948 -3.83717e-05 -1.32716e-19)
(0.0741073 -4.70383e-05 0)
(0.05427 -3.77131e-05 0)
(0.0555948 -3.83717e-05 -1.57692e-19)
(0.0741073 -4.70383e-05 0)
(0.05427 -3.77131e-05 0)
(0.0555948 -3.83717e-05 5.77657e-20)
(0.0741073 -4.70383e-05 0)
(0.05427 -3.77131e-05 0)
(0.0555948 -3.83717e-05 -1.32721e-19)
(0.0741073 -4.70383e-05 0)
(0.05427 -3.77128e-05 0)
(0.0555948 -3.83713e-05 -3.32562e-19)
(0.0741073 -4.7045e-05 0)
(0.0542684 -3.75522e-05 0)
(0.0555934 -3.82321e-05 0)
(0.0662494 4.70833e-05 1.62125e-21)
(0.0659366 4.63352e-05 4.9604e-20)
(0.0660539 4.64182e-05 4.90767e-21)
(0.0673428 -4.69297e-05 1.53134e-21)
(0.0670127 -4.73848e-05 5.35792e-20)
(0.0671319 -4.74423e-05 -3.69036e-22)
(0.0672308 -4.68616e-05 -2.54333e-21)
(0.0669024 -4.73156e-05 -2.42736e-20)
(0.0670211 -4.73602e-05 -1.05037e-19)
(0.0671189 -4.67926e-05 3.31614e-21)
(0.0667922 -4.72466e-05 -8.64537e-22)
(0.066811 -4.79298e-05 2.1077e-23)
(0.0659016 9.1322e-07 7.42133e-20)
(0.0670071 -4.67262e-05 -2.31951e-20)
(0.0666822 -4.718e-05 -1.28496e-22)
(0.0666993 -4.78613e-05 -8.07771e-22)
(0.0668134 -4.79168e-05 7.33003e-20)
(0.0668952 -4.43396e-05 -3.24072e-21)
(0.0665721 -4.48326e-05 -5.21952e-20)
(0.0665876 -4.54812e-05 -3.33116e-23)
(0.0667015 -4.55345e-05 5.05377e-20)
(0.066783 -3.54678e-05 3.6435e-21)
(0.0664616 -3.6093e-05 -1.497e-22)
(0.0664754 -3.66101e-05 -3.33327e-22)
(0.0665892 -3.66535e-05 -4.18667e-22)
(0.0666718 -2.97269e-05 5.02351e-21)
(0.0663521 -3.04379e-05 -4.94789e-20)
(0.0663643 -3.08714e-05 5.4727e-20)
(0.0664778 -3.08988e-05 4.19396e-22)
(0.0665594 -2.67767e-05 -1.64237e-21)
(0.0662414 -2.75281e-05 -7.72776e-20)
(0.0662519 -2.79153e-05 -7.64752e-20)
(0.0662567 -2.83205e-05 8.23498e-20)
(0.0659159 9.81194e-07 5.30275e-19)
(0.066452 -2.67708e-05 4.20817e-21)
(0.066136 -2.75183e-05 -7.89265e-20)
(0.066145 -2.79009e-05 5.26567e-20)
(0.0661482 -2.83016e-05 1.28045e-19)
(0.0662626 -2.83823e-05 8.50245e-20)
(0.0663407 -3.01819e-05 1.02892e-20)
(0.0660263 -3.08753e-05 -1.61496e-22)
(0.0660337 -3.13085e-05 1.02415e-22)
(0.0660354 -3.17684e-05 -1.3873e-23)
(0.0661578 -3.24231e-05 -7.66948e-20)
(0.0662306 -3.64314e-05 5.77958e-23)
(0.065918 -3.70191e-05 7.503e-20)
(0.0659237 -3.75419e-05 -2.09491e-21)
(0.0660368 -3.75826e-05 -1.31308e-19)
)
;

boundaryField
{
    inlet
    {
        type            calculated;
        value           uniform (0.0741049 0 0);
    }
    outlet2
    {
        type            calculated;
        value           uniform (0.0741049 0 0);
    }
    outlet1
    {
        type            calculated;
        value           nonuniform List<vector> 0();
    }
    wall
    {
        type            calculated;
        value           uniform (0.0741049 0 0);
    }
    symmetryBottom
    {
        type            symmetry;
    }
    symmetryZ0
    {
        type            symmetry;
    }
    symmetryZ05
    {
        type            symmetry;
    }
    procBoundary1to0
    {
        type            processor;
        value           uniform (0.0741049 0 0);
    }
}


// ************************************************************************* //
