/*--------------------------------*- C++ -*----------------------------------*\
| =========                 |                                                 |
| \\      /  F ield         | OpenFOAM: The Open Source CFD Toolbox           |
|  \\    /   O peration     | Version:  2412                                  |
|   \\  /    A nd           | Website:  www.openfoam.com                      |
|    \\/     M anipulation  |                                                 |
\*---------------------------------------------------------------------------*/
FoamFile
{
    version     2.0;
    format      ascii;
    arch        "LSB;label=32;scalar=64";
    class       volScalarField;
    location    "4e-06";
    object      rho;
}
// * * * * * * * * * * * * * * * * * * * * * * * * * * * * * * * * * * * * * //

dimensions      [0 0 0 0 0 0 0];

internalField   nonuniform List<scalar> 
84
(
2.81095e-05
1.28245e-05
1.50821e-05
2.81138e-05
1.28299e-05
1.50869e-05
2.81127e-05
1.28293e-05
1.50861e-05
2.81127e-05
1.28293e-05
1.50861e-05
2.81127e-05
1.28293e-05
1.50861e-05
2.81127e-05
1.28293e-05
1.50861e-05
2.81127e-05
1.28293e-05
1.50861e-05
2.81127e-05
1.28293e-05
1.50861e-05
2.81127e-05
1.28293e-05
1.50861e-05
2.81127e-05
1.28293e-05
1.50861e-05
2.81127e-05
1.28292e-05
1.50861e-05
2.81127e-05
1.2828e-05
1.50853e-05
2.2221e-05
2.17157e-05
2.18222e-05
2.30464e-05
2.24925e-05
2.26039e-05
2.29598e-05
2.2411e-05
2.25213e-05
2.28736e-05
2.23298e-05
2.23635e-05
2.16737e-05
2.27875e-05
2.22488e-05
2.2281e-05
2.23673e-05
2.27015e-05
2.21678e-05
2.21986e-05
2.22847e-05
2.26157e-05
2.20871e-05
2.21164e-05
2.22022e-05
2.25309e-05
2.20073e-05
2.20352e-05
2.21204e-05
2.24434e-05
2.19249e-05
2.19514e-05
2.19542e-05
2.16995e-05
2.23639e-05
2.185e-05
2.18752e-05
2.18769e-05
2.19628e-05
2.22777e-05
2.1769e-05
2.17926e-05
2.17934e-05
2.18944e-05
2.21946e-05
2.16906e-05
2.17129e-05
2.17974e-05
)
;

boundaryField
{
    inlet
    {
        type            calculated;
        value           uniform 0;
    }
    outlet2
    {
        type            calculated;
        value           uniform 0;
    }
    outlet1
    {
        type            calculated;
        value           nonuniform List<scalar> 0();
    }
    wall
    {
        type            calculated;
        value           uniform 0;
    }
    symmetryBottom
    {
        type            symmetry;
    }
    symmetryZ0
    {
        type            symmetry;
    }
    symmetryZ05
    {
        type            symmetry;
    }
    procBoundary1to0
    {
        type            processor;
        value           uniform 0;
    }
}


// ************************************************************************* //
