/*--------------------------------*- C++ -*----------------------------------*\
| =========                 |                                                 |
| \\      /  F ield         | OpenFOAM: The Open Source CFD Toolbox           |
|  \\    /   O peration     | Version:  2412                                  |
|   \\  /    A nd           | Website:  www.openfoam.com                      |
|    \\/     M anipulation  |                                                 |
\*---------------------------------------------------------------------------*/
FoamFile
{
    version     2.0;
    format      ascii;
    arch        "LSB;label=32;scalar=64";
    class       volScalarField;
    location    "4.3e-06";
    object      E_dof0;
}
// * * * * * * * * * * * * * * * * * * * * * * * * * * * * * * * * * * * * * //

dimensions      [0 0 0 0 0 0 0];

internalField   nonuniform List<scalar> 
84
(
99.4348
41.3941
50.6871
99.4518
41.4141
50.7051
99.4475
41.4116
50.7022
99.4475
41.4116
50.7022
99.4475
41.4116
50.7022
99.4475
41.4116
50.7022
99.4475
41.4116
50.7022
99.4475
41.4116
50.7022
99.4475
41.4116
50.7022
99.4475
41.4116
50.7022
99.4475
41.4116
50.7022
99.4477
41.4071
50.6992
77.1179
75.0582
75.4761
80.2779
78.01
78.4495
79.9492
77.7028
78.1377
79.6216
77.3967
77.5412
74.9283
79.2948
77.0914
77.2301
77.5563
78.9701
76.788
76.9209
77.2461
78.6527
76.4912
76.6186
76.9429
78.3416
76.2
76.3221
76.6442
78.0579
75.9328
76.0501
76.0611
75.0265
77.6535
75.5598
75.6697
75.6752
75.9988
77.3511
75.2763
75.3811
75.3831
75.77
77.0423
74.9872
75.0867
75.4058
)
;

boundaryField
{
    inlet
    {
        type            calculated;
        value           uniform 99.4306;
    }
    outlet2
    {
        type            calculated;
        value           uniform 99.4306;
    }
    outlet1
    {
        type            calculated;
        value           nonuniform List<scalar> 0();
    }
    wall
    {
        type            calculated;
        value           uniform 99.4306;
    }
    symmetryBottom
    {
        type            symmetry;
    }
    symmetryZ0
    {
        type            symmetry;
    }
    symmetryZ05
    {
        type            symmetry;
    }
    procBoundary1to0
    {
        type            processor;
        value           uniform 99.4306;
    }
}


// ************************************************************************* //
