/*--------------------------------*- C++ -*----------------------------------*\
| =========                 |                                                 |
| \\      /  F ield         | OpenFOAM: The Open Source CFD Toolbox           |
|  \\    /   O peration     | Version:  2412                                  |
|   \\  /    A nd           | Website:  www.openfoam.com                      |
|    \\/     M anipulation  |                                                 |
\*---------------------------------------------------------------------------*/
FoamFile
{
    version     2.0;
    format      ascii;
    arch        "LSB;label=32;scalar=64";
    class       volVectorField;
    location    "4.3e-06";
    object      rhoU_dof0;
}
// * * * * * * * * * * * * * * * * * * * * * * * * * * * * * * * * * * * * * //

dimensions      [0 0 0 0 0 0 0];

internalField   nonuniform List<vector> 
84
(
(0.074108 -3.1001e-07 0)
(0.031059 -5.16263e-07 0)
(0.037915 -4.28954e-07 -1.10857e-19)
(0.0741207 -0.000101748 0)
(0.0310741 -5.36083e-05 0)
(0.0379285 -6.21642e-05 -1.07731e-19)
(0.0741175 -0.000101437 0)
(0.0310722 -5.34328e-05 0)
(0.0379264 -6.1964e-05 1.45199e-19)
(0.0741175 -0.000101437 0)
(0.0310722 -5.34328e-05 0)
(0.0379264 -6.1964e-05 -1.86638e-19)
(0.0741175 -0.000101437 0)
(0.0310722 -5.34328e-05 0)
(0.0379264 -6.1964e-05 -2.99012e-19)
(0.0741175 -0.000101437 0)
(0.0310722 -5.34328e-05 0)
(0.0379264 -6.1964e-05 1.82671e-19)
(0.0741175 -0.000101437 0)
(0.0310722 -5.34328e-05 0)
(0.0379264 -6.1964e-05 -2.21768e-19)
(0.0741175 -0.000101437 0)
(0.0310722 -5.34328e-05 0)
(0.0379264 -6.1964e-05 -2.55298e-19)
(0.0741175 -0.000101437 0)
(0.0310722 -5.34328e-05 0)
(0.0379264 -6.1964e-05 1.06937e-19)
(0.0741175 -0.000101437 0)
(0.0310722 -5.34328e-05 0)
(0.0379264 -6.1964e-05 -2.1946e-19)
(0.0741175 -0.000101437 0)
(0.0310722 -5.34307e-05 0)
(0.0379264 -6.19626e-05 -5.62927e-19)
(0.0741176 -0.000101451 0)
(0.0310688 -5.31005e-05 0)
(0.0379242 -6.17444e-05 0)
(0.0575562 9.89527e-05 8.3354e-21)
(0.0560357 9.24616e-05 1.07208e-19)
(0.056345 9.31295e-05 1.08002e-20)
(0.0598958 -9.97124e-05 8.02922e-21)
(0.058222 -9.84483e-05 1.13833e-19)
(0.0585471 -9.88662e-05 -2.23692e-21)
(0.059652 -9.93387e-05 -1.15742e-20)
(0.057994 -9.80822e-05 -5.24689e-20)
(0.0583158 -9.84237e-05 -2.1549e-19)
(0.059409 -9.89561e-05 1.48524e-20)
(0.0577669 -9.7718e-05 -2.45254e-21)
(0.0578732 -9.92731e-05 1.33241e-22)
(0.0559349 5.07839e-06 1.69578e-19)
(0.0591666 -9.85955e-05 -3.27663e-20)
(0.0575403 -9.7374e-05 5.47529e-22)
(0.0576424 -9.89179e-05 -1.74134e-21)
(0.0578843 -9.92156e-05 1.77236e-19)
(0.0589239 -9.39306e-05 -1.46005e-20)
(0.0573135 -9.30296e-05 -1.10935e-19)
(0.0574113 -9.45053e-05 4.59888e-21)
(0.0576525 -9.47915e-05 1.17523e-19)
(0.0586804 -7.43835e-05 1.77e-20)
(0.0570858 -7.47175e-05 -1.35084e-21)
(0.0571793 -7.58455e-05 -3.11938e-22)
(0.0574199 -7.60777e-05 -9.3461e-22)
(0.058441 -6.21242e-05 2.21128e-20)
(0.056862 -6.32232e-05 -1.11233e-19)
(0.0569513 -6.41424e-05 1.18376e-19)
(0.0571902 -6.42853e-05 1.41106e-21)
(0.0581935 -5.49502e-05 -8.10013e-21)
(0.0566299 -5.64849e-05 -1.66905e-19)
(0.056715 -5.72623e-05 -1.58097e-19)
(0.0567224 -5.81013e-05 1.88722e-19)
(0.0560123 5.37725e-06 1.02456e-18)
(0.0579734 -5.40284e-05 1.8853e-20)
(0.0564259 -5.56097e-05 -1.6449e-19)
(0.0565071 -5.63483e-05 1.19768e-19)
(0.0565115 -5.71534e-05 2.45913e-19)
(0.0567523 -5.75994e-05 1.51338e-19)
(0.0577311 -6.15515e-05 4.57484e-20)
(0.0561991 -6.2627e-05 -2.0739e-21)
(0.0562761 -6.3501e-05 2.77321e-22)
(0.0562777 -6.44664e-05 -2.16082e-22)
(0.0565646 -6.81304e-05 -1.73572e-19)
(0.0574983 -7.46119e-05 1.21523e-22)
(0.055981 -7.47951e-05 1.61191e-19)
(0.0560541 -7.58879e-05 -1.11467e-20)
(0.0562909 -7.60958e-05 -2.45572e-19)
)
;

boundaryField
{
    inlet
    {
        type            calculated;
        value           uniform (0.0741049 0 0);
    }
    outlet2
    {
        type            calculated;
        value           uniform (0.0741049 0 0);
    }
    outlet1
    {
        type            calculated;
        value           nonuniform List<vector> 0();
    }
    wall
    {
        type            calculated;
        value           uniform (0.0741049 0 0);
    }
    symmetryBottom
    {
        type            symmetry;
    }
    symmetryZ0
    {
        type            symmetry;
    }
    symmetryZ05
    {
        type            symmetry;
    }
    procBoundary1to0
    {
        type            processor;
        value           uniform (0.0741049 0 0);
    }
}


// ************************************************************************* //
