/*--------------------------------*- C++ -*----------------------------------*\
| =========                 |                                                 |
| \\      /  F ield         | OpenFOAM: The Open Source CFD Toolbox           |
|  \\    /   O peration     | Version:  2412                                  |
|   \\  /    A nd           | Website:  www.openfoam.com                      |
|    \\/     M anipulation  |                                                 |
\*---------------------------------------------------------------------------*/
FoamFile
{
    version     2.0;
    format      ascii;
    arch        "LSB;label=32;scalar=64";
    class       volScalarField;
    location    "2e-07";
    object      rho_dof0;
}
// * * * * * * * * * * * * * * * * * * * * * * * * * * * * * * * * * * * * * //

dimensions      [0 0 0 0 0 0 0];

internalField   nonuniform List<scalar> 
84
(
2.81085e-05
2.72228e-05
2.72264e-05
2.81085e-05
2.72229e-05
2.72265e-05
2.81085e-05
2.72229e-05
2.72265e-05
2.81085e-05
2.72229e-05
2.72265e-05
2.81085e-05
2.72229e-05
2.72265e-05
2.81085e-05
2.72229e-05
2.72265e-05
2.81085e-05
2.72229e-05
2.72265e-05
2.81085e-05
2.72229e-05
2.72265e-05
2.81085e-05
2.72229e-05
2.72265e-05
2.81085e-05
2.72229e-05
2.72265e-05
2.81085e-05
2.72229e-05
2.72265e-05
2.81085e-05
2.72229e-05
2.72264e-05
2.77493e-05
2.77484e-05
2.77535e-05
2.77982e-05
2.77979e-05
2.7803e-05
2.77932e-05
2.77929e-05
2.77979e-05
2.77882e-05
2.77878e-05
2.77884e-05
2.77474e-05
2.77832e-05
2.77828e-05
2.77833e-05
2.77884e-05
2.77782e-05
2.77777e-05
2.77782e-05
2.77833e-05
2.77732e-05
2.77727e-05
2.7773e-05
2.77782e-05
2.77682e-05
2.77676e-05
2.77679e-05
2.7773e-05
2.77633e-05
2.77626e-05
2.77628e-05
2.7763e-05
2.77474e-05
2.77583e-05
2.77575e-05
2.77577e-05
2.77578e-05
2.7763e-05
2.77533e-05
2.77525e-05
2.77526e-05
2.77526e-05
2.77578e-05
2.77483e-05
2.77474e-05
2.77474e-05
2.77525e-05
)
;

boundaryField
{
    inlet
    {
        type            calculated;
        value           uniform 2.81085e-05;
    }
    outlet2
    {
        type            calculated;
        value           uniform 2.81085e-05;
    }
    outlet1
    {
        type            calculated;
        value           nonuniform List<scalar> 0();
    }
    wall
    {
        type            calculated;
        value           uniform 2.81085e-05;
    }
    symmetryBottom
    {
        type            symmetry;
    }
    symmetryZ0
    {
        type            symmetry;
    }
    symmetryZ05
    {
        type            symmetry;
    }
    procBoundary1to0
    {
        type            processor;
        value           uniform 2.81085e-05;
    }
}


// ************************************************************************* //
