/*--------------------------------*- C++ -*----------------------------------*\
| =========                 |                                                 |
| \\      /  F ield         | OpenFOAM: The Open Source CFD Toolbox           |
|  \\    /   O peration     | Version:  2412                                  |
|   \\  /    A nd           | Website:  www.openfoam.com                      |
|    \\/     M anipulation  |                                                 |
\*---------------------------------------------------------------------------*/
FoamFile
{
    version     2.0;
    format      ascii;
    arch        "LSB;label=32;scalar=64";
    class       volVectorField;
    location    "5.4e-06";
    object      U;
}
// * * * * * * * * * * * * * * * * * * * * * * * * * * * * * * * * * * * * * //

dimensions      [0 0 0 0 0 0 0];

internalField   nonuniform List<vector> 
84
(
(2636.39 -0.0166739 0)
(2607.17 -0.0715885 0)
(2624.74 -0.0407194 -9.77476e-15)
(2636.39 -4.35282 0)
(2607.18 -5.90964 0)
(2624.74 -5.3712 -9.45429e-15)
(2636.39 -4.3367 0)
(2607.18 -5.88569 0)
(2624.74 -5.3501 1.27323e-14)
(2636.39 -4.3367 0)
(2607.18 -5.88569 0)
(2624.74 -5.3501 -1.68379e-14)
(2636.39 -4.3367 0)
(2607.18 -5.88569 0)
(2624.74 -5.3501 -2.5531e-14)
(2636.39 -4.3367 0)
(2607.18 -5.88569 0)
(2624.74 -5.3501 1.64513e-14)
(2636.39 -4.3367 0)
(2607.18 -5.88569 0)
(2624.74 -5.3501 -1.82247e-14)
(2636.39 -4.3367 0)
(2607.18 -5.88569 0)
(2624.74 -5.3501 -2.1056e-14)
(2636.39 -4.3367 0)
(2607.18 -5.88569 0)
(2624.74 -5.3501 9.64237e-15)
(2636.39 -4.3367 0)
(2607.18 -5.88569 0)
(2624.74 -5.3501 -1.83555e-14)
(2636.39 -4.33671 0)
(2607.18 -5.88533 0)
(2624.74 -5.34995 -4.94909e-14)
(2636.39 -4.33725 0)
(2607.18 -5.84128 0)
(2624.74 -5.33259 0)
(2630.92 5.69577 5.87462e-16)
(2629.72 5.40434 6.37798e-15)
(2629.93 5.42094 6.54843e-16)
(2632.82 -5.50452 5.38381e-16)
(2631.52 -5.59057 6.5887e-15)
(2631.74 -5.58138 -1.60551e-16)
(2632.74 -5.50645 -7.65114e-16)
(2631.44 -5.59153 -3.12402e-15)
(2631.66 -5.57711 -1.10802e-14)
(2632.65 -5.50757 9.88383e-16)
(2631.36 -5.59254 -1.65027e-16)
(2631.5 -5.67084 1.08092e-17)
(2630.75 0.388289 1.03171e-14)
(2632.57 -5.51024 -1.57537e-15)
(2631.29 -5.59499 4.36166e-17)
(2631.42 -5.67338 -1.01811e-16)
(2631.51 -5.66524 1.02477e-14)
(2632.46 -5.28729 -9.81931e-16)
(2631.18 -5.38484 -6.5081e-15)
(2631.31 -5.46067 3.88545e-16)
(2631.4 -5.45292 7.09656e-15)
(2632.27 -4.19296 1.17787e-15)
(2630.99 -4.34225 -1.15922e-16)
(2631.12 -4.39869 -6.3952e-18)
(2631.2 -4.39265 -5.57023e-17)
(2632.14 -3.51782 1.45642e-15)
(2630.85 -3.69854 -6.66259e-15)
(2630.98 -3.74377 7.28727e-15)
(2631.06 -3.73468 9.74968e-17)
(2631.99 -3.10355 -5.61591e-16)
(2630.65 -3.30355 -1.00118e-14)
(2630.78 -3.34041 -9.20861e-15)
(2630.78 -3.38917 1.07618e-14)
(2630.73 0.408889 5.93359e-14)
(2632.08 -3.04143 1.2598e-15)
(2630.88 -3.24473 -9.79877e-15)
(2631 -3.27892 7.06971e-15)
(2630.99 -3.3255 1.34125e-14)
(2631.09 -3.34178 8.58598e-15)
(2632.01 -3.49918 3.13581e-15)
(2630.79 -3.6789 -1.92807e-16)
(2630.91 -3.72192 2.05084e-17)
(2630.9 -3.77941 -1.7281e-17)
(2631.01 -4.03134 -1.05903e-14)
(2631.96 -4.26839 7.01071e-18)
(2630.74 -4.4069 9.55579e-15)
(2630.86 -4.46345 -8.5229e-16)
(2630.94 -4.45535 -1.35147e-14)
)
;

boundaryField
{
    inlet
    {
        type            calculated;
        value           uniform (0 0 0);
    }
    outlet2
    {
        type            calculated;
        value           uniform (0 0 0);
    }
    outlet1
    {
        type            calculated;
        value           nonuniform List<vector> 0();
    }
    wall
    {
        type            calculated;
        value           uniform (0 0 0);
    }
    symmetryBottom
    {
        type            symmetry;
    }
    symmetryZ0
    {
        type            symmetry;
    }
    symmetryZ05
    {
        type            symmetry;
    }
    procBoundary1to0
    {
        type            processor;
        value           uniform (0 0 0);
    }
}


// ************************************************************************* //
