/*--------------------------------*- C++ -*----------------------------------*\
| =========                 |                                                 |
| \\      /  F ield         | OpenFOAM: The Open Source CFD Toolbox           |
|  \\    /   O peration     | Version:  2412                                  |
|   \\  /    A nd           | Website:  www.openfoam.com                      |
|    \\/     M anipulation  |                                                 |
\*---------------------------------------------------------------------------*/
FoamFile
{
    version     2.0;
    format      ascii;
    arch        "LSB;label=32;scalar=64";
    class       volScalarField;
    location    "6.6e-06";
    object      E;
}
// * * * * * * * * * * * * * * * * * * * * * * * * * * * * * * * * * * * * * //

dimensions      [0 0 0 0 0 0 0];

internalField   nonuniform List<scalar> 
84
(
96.486
61.2058
65.0287
64.76
64.779
64.783
64.7879
65.2816
102.469
65.1001
69.2109
68.9904
69.076
69.148
69.223
69.7419
101.289
65.2256
68.6947
68.5474
68.6196
68.6843
68.7515
69.2679
100.841
64.3523
68.3806
68.1516
68.2244
68.2832
68.7969
100.665
63.9045
67.9369
67.7006
67.7659
67.8172
68.3283
100.033
63.4921
67.4933
67.2515
67.3094
67.3531
67.8616
99.4125
63.0919
67.0593
66.8128
66.8634
66.8996
67.4056
98.5219
62.9983
66.598
66.3897
66.4301
66.4595
66.963
98.0245
62.371
66.2646
66.0095
66.0473
66.5479
97.5188
61.8605
65.7369
65.4751
65.5046
66.002
96.7836
61.4874
65.3126
65.0471
65.0693
65.5643
95.6273
61.2437
64.8771
64.6255
64.6397
64.6403
65.1335
)
;

boundaryField
{
    inlet
    {
        type            calculated;
        value           nonuniform List<scalar> 0();
    }
    outlet2
    {
        type            calculated;
        value           uniform 0;
    }
    outlet1
    {
        type            calculated;
        value           uniform 0;
    }
    wall
    {
        type            calculated;
        value           uniform 0;
    }
    symmetryBottom
    {
        type            symmetry;
    }
    symmetryZ0
    {
        type            symmetry;
    }
    symmetryZ05
    {
        type            symmetry;
    }
    procBoundary0to1
    {
        type            processor;
        value           uniform 0;
    }
}


// ************************************************************************* //
