/*--------------------------------*- C++ -*----------------------------------*\
| =========                 |                                                 |
| \\      /  F ield         | OpenFOAM: The Open Source CFD Toolbox           |
|  \\    /   O peration     | Version:  2412                                  |
|   \\  /    A nd           | Website:  www.openfoam.com                      |
|    \\/     M anipulation  |                                                 |
\*---------------------------------------------------------------------------*/
FoamFile
{
    version     2.0;
    format      ascii;
    arch        "LSB;label=32;scalar=64";
    class       volScalarField;
    location    "6.6e-06";
    object      rho;
}
// * * * * * * * * * * * * * * * * * * * * * * * * * * * * * * * * * * * * * //

dimensions      [0 0 0 0 0 0 0];

internalField   nonuniform List<scalar> 
84
(
2.73114e-05
1.7426e-05
1.84849e-05
1.84116e-05
1.84169e-05
1.84182e-05
1.84198e-05
1.85583e-05
2.89679e-05
1.85091e-05
1.96466e-05
1.95868e-05
1.96107e-05
1.96309e-05
1.96519e-05
1.97973e-05
2.86393e-05
1.85419e-05
1.95024e-05
1.94624e-05
1.94826e-05
1.95008e-05
1.95196e-05
1.96643e-05
2.85139e-05
1.82988e-05
1.94137e-05
1.93515e-05
1.93717e-05
1.93882e-05
1.95322e-05
2.84637e-05
1.81732e-05
1.92892e-05
1.92249e-05
1.92431e-05
1.92574e-05
1.94007e-05
2.82861e-05
1.80569e-05
1.91642e-05
1.90984e-05
1.91145e-05
1.91267e-05
1.92692e-05
2.81078e-05
1.79418e-05
1.90395e-05
1.89723e-05
1.89863e-05
1.89964e-05
1.91382e-05
2.78536e-05
1.79112e-05
1.89066e-05
1.88498e-05
1.88609e-05
1.8869e-05
1.90101e-05
2.76905e-05
1.77182e-05
1.87938e-05
1.87238e-05
1.87337e-05
1.88739e-05
2.76039e-05
1.76098e-05
1.86843e-05
1.86128e-05
1.86212e-05
1.87607e-05
2.73841e-05
1.74969e-05
1.85563e-05
1.84837e-05
1.84898e-05
1.86286e-05
2.70554e-05
1.74267e-05
1.84318e-05
1.83631e-05
1.8367e-05
1.83672e-05
1.85055e-05
)
;

boundaryField
{
    inlet
    {
        type            calculated;
        value           nonuniform List<scalar> 0();
    }
    outlet2
    {
        type            calculated;
        value           uniform 0;
    }
    outlet1
    {
        type            calculated;
        value           uniform 0;
    }
    wall
    {
        type            calculated;
        value           uniform 0;
    }
    symmetryBottom
    {
        type            symmetry;
    }
    symmetryZ0
    {
        type            symmetry;
    }
    symmetryZ05
    {
        type            symmetry;
    }
    procBoundary0to1
    {
        type            processor;
        value           uniform 0;
    }
}


// ************************************************************************* //
