/*--------------------------------*- C++ -*----------------------------------*\
| =========                 |                                                 |
| \\      /  F ield         | OpenFOAM: The Open Source CFD Toolbox           |
|  \\    /   O peration     | Version:  2412                                  |
|   \\  /    A nd           | Website:  www.openfoam.com                      |
|    \\/     M anipulation  |                                                 |
\*---------------------------------------------------------------------------*/
FoamFile
{
    version     2.0;
    format      ascii;
    arch        "LSB;label=32;scalar=64";
    class       volScalarField;
    location    "6.6e-06";
    object      T;
}
// * * * * * * * * * * * * * * * * * * * * * * * * * * * * * * * * * * * * * //

dimensions      [0 0 0 0 0 0 0];

internalField   nonuniform List<scalar> 
84
(
204.011
204.059
204.191
204.243
204.31
204.377
204.447
204.44
199.975
199.936
200.007
199.996
199.997
199.997
199.997
199.998
199.95
199.937
200.006
199.996
199.997
199.997
199.997
199.998
199.983
199.932
200.008
199.996
199.997
199.997
199.998
199.983
199.937
200.014
200.002
200.003
200.003
200.004
200.532
200.533
200.604
200.597
200.603
200.607
200.607
203.56
203.666
203.772
203.819
203.879
203.939
203.931
206.224
206.735
206.744
206.858
206.967
207.08
207.066
217.213
219.946
220.008
220.385
220.761
220.707
192.757
192.581
192.548
192.413
192.288
192.304
198.135
198.196
198.22
198.18
198.15
198.155
199.809
199.157
199.272
199.247
199.235
199.222
199.225
)
;

boundaryField
{
    inlet
    {
        type            calculated;
        value           nonuniform List<scalar> 0();
    }
    outlet2
    {
        type            calculated;
        value           uniform 0;
    }
    outlet1
    {
        type            calculated;
        value           uniform 0;
    }
    wall
    {
        type            calculated;
        value           uniform 0;
    }
    symmetryBottom
    {
        type            symmetry;
    }
    symmetryZ0
    {
        type            symmetry;
    }
    symmetryZ05
    {
        type            symmetry;
    }
    procBoundary0to1
    {
        type            processor;
        value           uniform 0;
    }
}


// ************************************************************************* //
