/*--------------------------------*- C++ -*----------------------------------*\
| =========                 |                                                 |
| \\      /  F ield         | OpenFOAM: The Open Source CFD Toolbox           |
|  \\    /   O peration     | Version:  2412                                  |
|   \\  /    A nd           | Website:  www.openfoam.com                      |
|    \\/     M anipulation  |                                                 |
\*---------------------------------------------------------------------------*/
FoamFile
{
    version     2.0;
    format      ascii;
    arch        "LSB;label=32;scalar=64";
    class       volVectorField;
    location    "6.6e-06";
    object      U;
}
// * * * * * * * * * * * * * * * * * * * * * * * * * * * * * * * * * * * * * //

dimensions      [0 0 0 0 0 0 0];

internalField   nonuniform List<vector> 
84
(
(2634.17 6.73532 6.77785e-15)
(2626.38 6.86184 -1.02295e-14)
(2628.49 6.95238 -1.61171e-14)
(2628.27 7.05313 1.07509e-14)
(2628.26 7.15618 -1.59292e-15)
(2628.24 7.26231 1.35981e-15)
(2628.22 7.37162 1.5534e-14)
(2628.36 7.35905 1.68601e-15)
(2636.36 -6.93222 6.42115e-15)
(2628.72 -7.1754 -9.63133e-15)
(2630.83 -7.23166 -1.99323e-14)
(2630.65 -7.34592 2.67627e-15)
(2630.68 -7.45774 -3.74202e-14)
(2630.69 -7.57345 9.3927e-15)
(2630.71 -7.69279 3.04736e-14)
(2630.84 -7.67774 5.80731e-15)
(2636.13 -6.24595 -2.59267e-14)
(2628.92 -8.14916 8.03954e-15)
(2630.68 -7.11052 1.11483e-14)
(2630.55 -7.3567 -1.49686e-15)
(2630.57 -7.4587 -5.65447e-16)
(2630.58 -7.57499 1.45664e-14)
(2630.6 -7.69435 -1.26955e-14)
(2630.73 -7.67929 -1.3853e-14)
(2636.06 -6.51318 -2.49231e-14)
(2628.55 -7.32509 1.82671e-14)
(2630.64 -7.34301 -2.0777e-15)
(2630.45 -7.46103 -3.40978e-14)
(2630.48 -7.57651 3.43194e-14)
(2630.49 -7.69596 5.35753e-15)
(2630.62 -7.68089 -1.27119e-14)
(2636.09 -7.05241 -1.53682e-14)
(2628.42 -7.26933 -6.17818e-15)
(2630.54 -7.34991 7.24886e-16)
(2630.35 -7.465 2.20141e-16)
(2630.37 -7.58073 -1.17331e-14)
(2630.38 -7.7003 1.05038e-14)
(2630.51 -7.68522 2.14131e-14)
(2635.97 -6.8301 -9.69785e-15)
(2628.28 -7.02706 1.96994e-14)
(2630.4 -7.11102 -2.20838e-15)
(2630.21 -7.22468 2.20604e-14)
(2630.23 -7.33943 -2.0417e-14)
(2630.24 -7.45807 1.71653e-14)
(2630.37 -7.44344 -3.64534e-14)
(2635.75 -5.49508 -3.81058e-18)
(2628 -5.66785 1.80766e-14)
(2630.14 -5.72472 -2.12023e-15)
(2629.94 -5.81745 8.89666e-17)
(2629.96 -5.90957 1.82043e-14)
(2629.96 -6.00492 2.06083e-15)
(2630.09 -5.99321 1.79324e-14)
(2635.55 -4.07062 2.61456e-16)
(2627.94 -5.6576 3.1011e-16)
(2629.93 -4.78717 -1.10336e-16)
(2629.75 -4.97869 -2.85864e-16)
(2629.76 -5.0503 -5.64857e-17)
(2629.76 -5.13354 1.37145e-16)
(2629.9 -5.12338 -1.44032e-14)
(2635.35 -3.9037 3.58972e-14)
(2627.49 -4.38318 -5.84729e-15)
(2629.66 -4.40108 -3.83468e-14)
(2629.44 -4.47296 -1.12933e-14)
(2629.45 -4.54406 2.14074e-14)
(2629.59 -4.5354 -2.84756e-15)
(2635.49 -4.12325 -1.26488e-14)
(2627.93 -4.22732 2.10308e-15)
(2630.02 -4.27852 -1.7793e-14)
(2629.82 -4.3437 2.0002e-14)
(2629.83 -4.40973 3.31821e-14)
(2629.96 -4.40174 -3.93334e-15)
(2635.43 -4.34953 -1.63909e-14)
(2627.78 -4.89767 2.8801e-15)
(2629.88 -4.8755 -1.40206e-16)
(2629.68 -4.95742 3.51343e-14)
(2629.69 -5.03421 3.54099e-14)
(2629.82 -5.02487 9.17289e-16)
(2635.32 -0.69775 -1.37189e-15)
(2627.73 -6.75761 1.62358e-16)
(2629.8 -5.67227 -8.24761e-18)
(2629.61 -5.85631 2.13481e-14)
(2629.62 -5.93969 -2.59779e-15)
(2629.62 -6.03223 1.94951e-16)
(2629.75 -6.02123 -1.74781e-14)
)
;

boundaryField
{
    inlet
    {
        type            calculated;
        value           nonuniform List<vector> 0();
    }
    outlet2
    {
        type            calculated;
        value           uniform (0 0 0);
    }
    outlet1
    {
        type            calculated;
        value           uniform (0 0 0);
    }
    wall
    {
        type            calculated;
        value           uniform (0 0 0);
    }
    symmetryBottom
    {
        type            symmetry;
    }
    symmetryZ0
    {
        type            symmetry;
    }
    symmetryZ05
    {
        type            symmetry;
    }
    procBoundary0to1
    {
        type            processor;
        value           uniform (0 0 0);
    }
}


// ************************************************************************* //
