/*--------------------------------*- C++ -*----------------------------------*\
| =========                 |                                                 |
| \\      /  F ield         | OpenFOAM: The Open Source CFD Toolbox           |
|  \\    /   O peration     | Version:  2412                                  |
|   \\  /    A nd           | Website:  www.openfoam.com                      |
|    \\/     M anipulation  |                                                 |
\*---------------------------------------------------------------------------*/
FoamFile
{
    version     2.0;
    format      ascii;
    arch        "LSB;label=32;scalar=64";
    class       volScalarField;
    location    "9.9e-06";
    object      E;
}
// * * * * * * * * * * * * * * * * * * * * * * * * * * * * * * * * * * * * * //

dimensions      [0 0 0 0 0 0 0];

internalField   nonuniform List<scalar> 
84
(
102.29
49.1294
53.3471
53.141
53.1683
53.19
53.1523
53.8618
110.033
52.9433
57.5344
57.3777
57.4732
57.5645
57.6018
58.3546
108.413
53.1123
57.004
56.9069
56.9919
57.0765
57.1065
57.8543
107.101
52.1656
56.5824
56.4205
56.5051
56.5246
57.2668
107.266
51.5721
56.0365
55.8626
55.938
55.9474
56.6841
106.275
51.0749
55.4911
55.3104
55.3766
55.3761
56.1073
105.274
50.5863
54.9505
54.7637
54.8207
54.8106
55.5363
103.953
50.3678
54.3882
54.2238
54.2703
54.2508
54.9711
102.835
49.6794
53.9103
53.7166
53.6969
54.4116
102.379
49.1532
53.3795
53.1771
53.1484
53.8577
101.336
48.6802
52.8513
52.6431
52.6054
53.3094
99.3872
48.3512
52.3149
52.1099
52.1236
52.068
52.767
)
;

boundaryField
{
    inlet
    {
        type            calculated;
        value           nonuniform List<scalar> 0();
    }
    outlet2
    {
        type            calculated;
        value           uniform 0;
    }
    outlet1
    {
        type            calculated;
        value           uniform 0;
    }
    wall
    {
        type            calculated;
        value           uniform 0;
    }
    symmetryBottom
    {
        type            symmetry;
    }
    symmetryZ0
    {
        type            symmetry;
    }
    symmetryZ05
    {
        type            symmetry;
    }
    procBoundary0to1
    {
        type            processor;
        value           uniform 0;
    }
}


// ************************************************************************* //
