/*--------------------------------*- C++ -*----------------------------------*\
| =========                 |                                                 |
| \\      /  F ield         | OpenFOAM: The Open Source CFD Toolbox           |
|  \\    /   O peration     | Version:  2412                                  |
|   \\  /    A nd           | Website:  www.openfoam.com                      |
|    \\/     M anipulation  |                                                 |
\*---------------------------------------------------------------------------*/
FoamFile
{
    version     2.0;
    format      ascii;
    arch        "LSB;label=32;scalar=64";
    class       volVectorField;
    location    "9.9e-06";
    object      rhoU_dof0;
}
// * * * * * * * * * * * * * * * * * * * * * * * * * * * * * * * * * * * * * //

dimensions      [0 0 0 0 0 0 0];

internalField   nonuniform List<vector> 
84
(
(0.0762108 -5.84433e-06 3.47405e-19)
(0.0367831 -3.32651e-06 -1.8314e-19)
(0.0398941 -3.59887e-06 -5.14788e-19)
(0.039743 -3.69961e-06 2.59515e-19)
(0.039763 -3.81271e-06 -2.88664e-20)
(0.0397791 -3.93043e-06 -2.01395e-20)
(0.0397513 -4.06408e-06 4.62462e-19)
(0.040278 -4.08242e-06 3.96869e-20)
(0.0819596 -0.000317551 3.42591e-19)
(0.0396263 -0.000159223 -1.76105e-19)
(0.0430128 -0.000174189 -6.43873e-19)
(0.0428986 -0.00017638 1.54939e-19)
(0.0429695 -0.000179314 -1.12809e-18)
(0.0430373 -0.000182313 1.42653e-19)
(0.0430653 -0.000185554 9.02166e-19)
(0.0436241 -0.000187288 1.6094e-19)
(0.0807623 -0.00029277 -1.54051e-18)
(0.0397479 -0.000182529 1.77248e-19)
(0.0426189 -0.000174086 3.10059e-19)
(0.0425484 -0.000178599 -2.47532e-20)
(0.0426115 -0.000181471 -6.71301e-20)
(0.0426743 -0.000184545 4.92723e-19)
(0.0426969 -0.000187865 -3.32357e-19)
(0.043252 -0.000189613 -4.01824e-19)
(0.0797918 -0.000280886 -1.52341e-18)
(0.0390465 -0.000165184 5.30121e-19)
(0.0423049 -0.000177334 3.91162e-20)
(0.0421868 -0.000179765 -1.06092e-18)
(0.0422496 -0.0001828 9.63487e-19)
(0.0422643 -0.000186059 1.62119e-19)
(0.0428153 -0.000187796 -3.1721e-19)
(0.0799095 -0.000320024 -8.10587e-19)
(0.0386058 -0.000160406 -1.42352e-19)
(0.0418991 -0.000175823 1.29378e-20)
(0.0417721 -0.000178029 2.15755e-20)
(0.041828 -0.000181015 -3.36107e-19)
(0.0418353 -0.00018421 2.06967e-19)
(0.0423822 -0.000185936 6.05366e-19)
(0.0791752 -0.00031791 -5.33835e-19)
(0.0382359 -0.000158843 5.58997e-19)
(0.0414936 -0.00017416 -1.01295e-19)
(0.0413616 -0.000176316 7.00129e-19)
(0.0414106 -0.000179247 -6.46737e-19)
(0.0414106 -0.000182379 5.77847e-19)
(0.0419534 -0.000184094 -9.74901e-19)
(0.0784341 -0.000314824 -5.11126e-20)
(0.0378721 -0.000157505 5.18446e-19)
(0.0410917 -0.000172493 -4.22432e-20)
(0.0409551 -0.000174621 -3.83177e-20)
(0.0409973 -0.000177495 5.43293e-19)
(0.0409901 -0.000180566 2.74506e-20)
(0.0415289 -0.000182271 5.04021e-19)
(0.0774566 -0.000287334 7.7678e-21)
(0.0377077 -0.000176593 9.23246e-21)
(0.0406739 -0.000168795 -1.91009e-21)
(0.0405537 -0.00017306 -7.28751e-21)
(0.0405881 -0.000175756 1.90459e-21)
(0.0405739 -0.000178772 3.53006e-20)
(0.0411087 -0.000180465 -4.06111e-19)
(0.0766291 -0.000272852 1.83601e-18)
(0.0371967 -0.000160009 -4.6114e-20)
(0.0403184 -0.000171763 -1.02662e-18)
(0.0401765 -0.000174024 -3.74051e-19)
(0.040162 -0.000176995 5.84713e-19)
(0.0406927 -0.000178677 -3.87869e-20)
(0.0762896 -0.000310731 -6.29603e-19)
(0.0368055 -0.000155364 9.14702e-20)
(0.0399237 -0.000170273 -5.77009e-19)
(0.0397753 -0.000172317 5.06869e-19)
(0.0397541 -0.000175235 9.36023e-19)
(0.0402808 -0.000176906 -8.9442e-20)
(0.0755168 -0.000288398 -8.44249e-19)
(0.0364533 -0.00015586 6.43955e-20)
(0.0395309 -0.000168519 -7.80355e-20)
(0.0393782 -0.000170637 8.71742e-19)
(0.0393503 -0.000173492 9.96181e-19)
(0.0398731 -0.000175153 1.46311e-20)
(0.0740729 -1.83524e-05 -4.53501e-20)
(0.0362073 -0.000190164 3.98508e-21)
(0.0391322 -0.000161336 -5.09058e-20)
(0.0389817 -0.000166471 6.26335e-19)
(0.0389917 -0.00016892 -5.38489e-20)
(0.0389507 -0.000171705 4.66745e-20)
(0.0394698 -0.000173361 -5.05631e-19)
)
;

boundaryField
{
    inlet
    {
        type            calculated;
        value           nonuniform List<vector> 0();
    }
    outlet2
    {
        type            calculated;
        value           uniform (0.0741049 0 0);
    }
    outlet1
    {
        type            calculated;
        value           uniform (0.0741049 0 0);
    }
    wall
    {
        type            calculated;
        value           uniform (0.0741049 0 0);
    }
    symmetryBottom
    {
        type            symmetry;
    }
    symmetryZ0
    {
        type            symmetry;
    }
    symmetryZ05
    {
        type            symmetry;
    }
    procBoundary0to1
    {
        type            processor;
        value           uniform (0.0741049 0 0);
    }
}


// ************************************************************************* //
