/*--------------------------------*- C++ -*----------------------------------*\
| =========                 |                                                 |
| \\      /  F ield         | OpenFOAM: The Open Source CFD Toolbox           |
|  \\    /   O peration     | Version:  2412                                  |
|   \\  /    A nd           | Website:  www.openfoam.com                      |
|    \\/     M anipulation  |                                                 |
\*---------------------------------------------------------------------------*/
FoamFile
{
    version     2.0;
    format      ascii;
    arch        "LSB;label=32;scalar=64";
    class       volScalarField;
    location    "8.7e-06";
    object      E;
}
// * * * * * * * * * * * * * * * * * * * * * * * * * * * * * * * * * * * * * //

dimensions      [0 0 0 0 0 0 0];

internalField   nonuniform List<scalar> 
84
(
101.923
54.1136
57.46
57.3207
57.3433
57.3629
57.335
57.9929
108.692
57.7953
61.4166
61.3291
61.4156
61.5008
61.5435
62.2356
107.34
57.8417
60.9246
60.8759
60.9536
61.0323
61.0678
61.7559
106.23
57.0164
60.5141
60.4189
60.4944
60.5203
61.204
106.271
56.4708
59.9988
59.8935
59.9603
59.9768
60.6562
105.405
55.9926
59.485
59.3726
59.4309
59.4381
60.1132
104.533
55.5208
58.9754
58.8563
58.9061
58.9042
59.5751
103.411
55.2604
58.4514
58.3454
58.3858
58.3751
59.0417
102.449
54.6343
57.9931
57.8647
57.8508
58.513
102.002
54.1368
57.49
57.3535
57.331
57.989
101.095
53.6767
56.9896
56.8469
56.8159
57.4696
99.387
53.3294
56.4842
56.3411
56.3504
56.3055
56.9552
)
;

boundaryField
{
    inlet
    {
        type            calculated;
        value           nonuniform List<scalar> 0();
    }
    outlet2
    {
        type            calculated;
        value           uniform 0;
    }
    outlet1
    {
        type            calculated;
        value           uniform 0;
    }
    wall
    {
        type            calculated;
        value           uniform 0;
    }
    symmetryBottom
    {
        type            symmetry;
    }
    symmetryZ0
    {
        type            symmetry;
    }
    symmetryZ05
    {
        type            symmetry;
    }
    procBoundary0to1
    {
        type            processor;
        value           uniform 0;
    }
}


// ************************************************************************* //
