/*--------------------------------*- C++ -*----------------------------------*\
| =========                 |                                                 |
| \\      /  F ield         | OpenFOAM: The Open Source CFD Toolbox           |
|  \\    /   O peration     | Version:  2412                                  |
|   \\  /    A nd           | Website:  www.openfoam.com                      |
|    \\/     M anipulation  |                                                 |
\*---------------------------------------------------------------------------*/
FoamFile
{
    version     2.0;
    format      ascii;
    arch        "LSB;label=32;scalar=64";
    class       volScalarField;
    location    "8.7e-06";
    object      rho;
}
// * * * * * * * * * * * * * * * * * * * * * * * * * * * * * * * * * * * * * //

dimensions      [0 0 0 0 0 0 0];

internalField   nonuniform List<scalar> 
84
(
2.88048e-05
1.54217e-05
1.6348e-05
1.631e-05
1.63163e-05
1.63218e-05
1.63142e-05
1.64986e-05
3.06952e-05
1.64572e-05
1.74593e-05
1.7436e-05
1.74602e-05
1.74842e-05
1.74963e-05
1.76903e-05
3.03192e-05
1.64679e-05
1.73213e-05
1.73085e-05
1.73303e-05
1.73524e-05
1.73625e-05
1.75554e-05
3.00103e-05
1.62375e-05
1.72057e-05
1.71801e-05
1.72012e-05
1.72087e-05
1.74003e-05
3.00193e-05
1.60844e-05
1.70609e-05
1.70324e-05
1.70512e-05
1.7056e-05
1.72464e-05
2.97773e-05
1.59498e-05
1.69165e-05
1.68861e-05
1.69024e-05
1.69046e-05
1.70938e-05
2.95338e-05
1.5817e-05
1.67732e-05
1.6741e-05
1.67549e-05
1.67546e-05
1.69426e-05
2.92213e-05
1.57427e-05
1.66261e-05
1.65973e-05
1.66086e-05
1.66058e-05
1.67927e-05
2.89531e-05
1.55672e-05
1.64972e-05
1.64622e-05
1.64584e-05
1.66441e-05
2.88272e-05
1.54274e-05
1.63557e-05
1.63185e-05
1.63123e-05
1.64968e-05
2.85737e-05
1.52978e-05
1.6215e-05
1.6176e-05
1.61674e-05
1.63507e-05
2.80964e-05
1.51994e-05
1.6073e-05
1.60338e-05
1.60363e-05
1.60239e-05
1.62061e-05
)
;

boundaryField
{
    inlet
    {
        type            calculated;
        value           nonuniform List<scalar> 0();
    }
    outlet2
    {
        type            calculated;
        value           uniform 0;
    }
    outlet1
    {
        type            calculated;
        value           uniform 0;
    }
    wall
    {
        type            calculated;
        value           uniform 0;
    }
    symmetryBottom
    {
        type            symmetry;
    }
    symmetryZ0
    {
        type            symmetry;
    }
    symmetryZ05
    {
        type            symmetry;
    }
    procBoundary0to1
    {
        type            processor;
        value           uniform 0;
    }
}


// ************************************************************************* //
