/*--------------------------------*- C++ -*----------------------------------*\
| =========                 |                                                 |
| \\      /  F ield         | OpenFOAM: The Open Source CFD Toolbox           |
|  \\    /   O peration     | Version:  2412                                  |
|   \\  /    A nd           | Website:  www.openfoam.com                      |
|    \\/     M anipulation  |                                                 |
\*---------------------------------------------------------------------------*/
FoamFile
{
    version     2.0;
    format      ascii;
    arch        "LSB;label=32;scalar=64";
    class       volScalarField;
    location    "4.2e-06";
    object      E;
}
// * * * * * * * * * * * * * * * * * * * * * * * * * * * * * * * * * * * * * //

dimensions      [0 0 0 0 0 0 0];

internalField   nonuniform List<scalar> 
84
(
99.4346
42.5277
51.4351
99.4509
42.5473
51.4527
99.4468
42.5449
51.45
99.4468
42.5449
51.45
99.4468
42.5449
51.45
99.4468
42.5449
51.45
99.4468
42.5449
51.45
99.4468
42.5449
51.45
99.4468
42.5449
51.45
99.4468
42.5449
51.45
99.4468
42.5448
51.4499
99.447
42.5404
51.447
77.533
75.5534
75.9591
80.6329
78.4556
78.8816
80.3106
78.1537
78.5754
79.9894
77.853
77.9898
75.4262
79.6691
77.553
77.6843
78.0045
79.3507
77.2548
77.3805
77.6998
79.0396
76.9632
77.0835
77.402
78.7344
76.677
76.7921
77.1084
78.4564
76.4146
76.525
76.5361
75.5202
78.0593
76.0473
76.1507
76.1563
76.474
77.7628
75.7689
75.8672
75.8693
76.2476
77.4597
75.4845
75.5777
75.8911
)
;

boundaryField
{
    inlet
    {
        type            calculated;
        value           uniform 0;
    }
    outlet2
    {
        type            calculated;
        value           uniform 0;
    }
    outlet1
    {
        type            calculated;
        value           nonuniform List<scalar> 0();
    }
    wall
    {
        type            calculated;
        value           uniform 0;
    }
    symmetryBottom
    {
        type            symmetry;
    }
    symmetryZ0
    {
        type            symmetry;
    }
    symmetryZ05
    {
        type            symmetry;
    }
    procBoundary1to0
    {
        type            processor;
        value           uniform 0;
    }
}


// ************************************************************************* //
