/*--------------------------------*- C++ -*----------------------------------*\
| =========                 |                                                 |
| \\      /  F ield         | OpenFOAM: The Open Source CFD Toolbox           |
|  \\    /   O peration     | Version:  2412                                  |
|   \\  /    A nd           | Website:  www.openfoam.com                      |
|    \\/     M anipulation  |                                                 |
\*---------------------------------------------------------------------------*/
FoamFile
{
    version     2.0;
    format      ascii;
    arch        "LSB;label=32;scalar=64";
    class       volVectorField;
    location    "4.2e-06";
    object      rhoU_dof0;
}
// * * * * * * * * * * * * * * * * * * * * * * * * * * * * * * * * * * * * * //

dimensions      [0 0 0 0 0 0 0];

internalField   nonuniform List<vector> 
84
(
(0.0741079 -2.96785e-07 0)
(0.0319007 -5.06129e-07 0)
(0.038472 -4.2121e-07 -1.09295e-19)
(0.07412 -9.97756e-05 0)
(0.0319154 -5.36286e-05 0)
(0.0384852 -6.16359e-05 -1.0617e-19)
(0.074117 -9.94771e-05 0)
(0.0319136 -5.34572e-05 0)
(0.0384831 -6.1442e-05 1.42857e-19)
(0.074117 -9.94771e-05 0)
(0.0319136 -5.34572e-05 0)
(0.0384831 -6.1442e-05 -1.84292e-19)
(0.074117 -9.94771e-05 0)
(0.0319136 -5.34572e-05 0)
(0.0384831 -6.1442e-05 -2.96669e-19)
(0.074117 -9.94771e-05 0)
(0.0319136 -5.34572e-05 0)
(0.0384831 -6.1442e-05 1.80329e-19)
(0.074117 -9.94771e-05 0)
(0.0319136 -5.34572e-05 0)
(0.0384831 -6.1442e-05 -2.20984e-19)
(0.074117 -9.94771e-05 0)
(0.0319136 -5.34572e-05 0)
(0.0384831 -6.1442e-05 -2.53735e-19)
(0.074117 -9.94771e-05 0)
(0.0319136 -5.34572e-05 0)
(0.0384831 -6.1442e-05 1.05376e-19)
(0.074117 -9.94771e-05 0)
(0.0319136 -5.34572e-05 0)
(0.0384831 -6.1442e-05 -2.18674e-19)
(0.074117 -9.94772e-05 0)
(0.0319136 -5.34552e-05 0)
(0.0384831 -6.14406e-05 -5.57458e-19)
(0.0741171 -9.94904e-05 0)
(0.0319103 -5.31305e-05 0)
(0.0384809 -6.12234e-05 0)
(0.0578644 9.71377e-05 8.00516e-21)
(0.0564031 9.09699e-05 1.04946e-19)
(0.0567034 9.16e-05 1.05836e-20)
(0.0601594 -9.7822e-05 7.7095e-21)
(0.0585526 -9.67008e-05 1.11569e-19)
(0.0588678 -9.70952e-05 -2.1388e-21)
(0.0599204 -9.74645e-05 -1.11457e-20)
(0.0583286 -9.63499e-05 -5.26497e-20)
(0.0586406 -9.66714e-05 -2.14084e-19)
(0.0596822 -9.70985e-05 1.43045e-20)
(0.0581054 -9.60007e-05 -2.37508e-21)
(0.0582061 -9.75188e-05 1.26466e-22)
(0.0563044 4.86168e-06 1.66931e-19)
(0.0594445 -9.67535e-05 -3.25308e-20)
(0.0578828 -9.56709e-05 5.14368e-22)
(0.0579794 -9.71783e-05 -1.70769e-21)
(0.0582169 -9.74635e-05 1.73156e-19)
(0.0592066 -9.21596e-05 -1.40588e-20)
(0.0576599 -9.13825e-05 -1.0868e-19)
(0.0577523 -9.28231e-05 4.33069e-21)
(0.0579892 -9.30973e-05 1.14833e-19)
(0.0589678 -7.30074e-05 1.70455e-20)
(0.0574362 -7.3401e-05 -1.27455e-21)
(0.0575245 -7.45044e-05 -3.2297e-22)
(0.0577607 -7.47268e-05 -9.15362e-22)
(0.0587331 -6.09798e-05 2.13382e-20)
(0.0572162 -6.20999e-05 -1.08863e-19)
(0.0573004 -6.30004e-05 1.17052e-19)
(0.057535 -6.31373e-05 1.36245e-21)
(0.0584906 -5.39771e-05 -7.78649e-21)
(0.0569883 -5.55084e-05 -1.63503e-19)
(0.0570684 -5.62721e-05 -1.55141e-19)
(0.0570758 -5.70962e-05 1.84702e-19)
(0.0563785 5.14949e-06 1.00724e-18)
(0.0582743 -5.31093e-05 1.8184e-20)
(0.0567873 -5.46822e-05 -1.62316e-19)
(0.0568637 -5.54091e-05 1.16945e-19)
(0.0568682 -5.62009e-05 2.43013e-19)
(0.0571046 -5.66272e-05 1.48633e-19)
(0.0580368 -6.04796e-05 4.40643e-20)
(0.0565645 -6.15731e-05 -1.94388e-21)
(0.0566368 -6.24312e-05 2.67688e-22)
(0.0566385 -6.33789e-05 -2.05373e-22)
(0.056919 -6.68852e-05 -1.69536e-19)
(0.0578083 -7.33033e-05 1.1929e-22)
(0.05635 -7.35485e-05 1.59079e-19)
(0.0564185 -7.46193e-05 -1.0664e-20)
(0.056651 -7.48186e-05 -2.42908e-19)
)
;

boundaryField
{
    inlet
    {
        type            calculated;
        value           uniform (0.0741049 0 0);
    }
    outlet2
    {
        type            calculated;
        value           uniform (0.0741049 0 0);
    }
    outlet1
    {
        type            calculated;
        value           nonuniform List<vector> 0();
    }
    wall
    {
        type            calculated;
        value           uniform (0.0741049 0 0);
    }
    symmetryBottom
    {
        type            symmetry;
    }
    symmetryZ0
    {
        type            symmetry;
    }
    symmetryZ05
    {
        type            symmetry;
    }
    procBoundary1to0
    {
        type            processor;
        value           uniform (0.0741049 0 0);
    }
}


// ************************************************************************* //
