/*--------------------------------*- C++ -*----------------------------------*\
| =========                 |                                                 |
| \\      /  F ield         | OpenFOAM: The Open Source CFD Toolbox           |
|  \\    /   O peration     | Version:  2412                                  |
|   \\  /    A nd           | Website:  www.openfoam.com                      |
|    \\/     M anipulation  |                                                 |
\*---------------------------------------------------------------------------*/
FoamFile
{
    version     2.0;
    format      ascii;
    arch        "LSB;label=32;scalar=64";
    class       volScalarField;
    location    "5.8e-06";
    object      E_dof0;
}
// * * * * * * * * * * * * * * * * * * * * * * * * * * * * * * * * * * * * * //

dimensions      [0 0 0 0 0 0 0];

internalField   nonuniform List<scalar> 
84
(
99.4378
25.4426
41.173
99.4666
25.467
41.1961
99.4593
25.4639
41.192
99.4593
25.4639
41.192
99.4593
25.4639
41.192
99.4593
25.4639
41.192
99.4593
25.4639
41.192
99.4593
25.4639
41.192
99.4593
25.4639
41.192
99.4593
25.4639
41.192
99.4593
25.4639
41.1919
99.4595
25.4583
41.189
71.3206
67.9789
68.6032
75.3198
71.5838
72.2544
74.8995
71.2047
71.8663
74.4811
70.8275
71.1202
67.8254
74.0643
70.4518
70.7357
71.1408
73.6496
70.0779
70.3531
70.7567
73.2446
69.7124
69.9791
70.3812
72.8496
69.3556
69.6142
70.0124
72.4862
69.0238
69.2753
69.2821
67.9934
71.9814
68.577
68.8172
68.8174
69.2218
71.5944
68.2268
68.459
68.4554
68.9707
71.2063
67.8759
68.1003
68.4939
)
;

boundaryField
{
    inlet
    {
        type            calculated;
        value           uniform 99.4306;
    }
    outlet2
    {
        type            calculated;
        value           uniform 99.4306;
    }
    outlet1
    {
        type            calculated;
        value           nonuniform List<scalar> 0();
    }
    wall
    {
        type            calculated;
        value           uniform 99.4306;
    }
    symmetryBottom
    {
        type            symmetry;
    }
    symmetryZ0
    {
        type            symmetry;
    }
    symmetryZ05
    {
        type            symmetry;
    }
    procBoundary1to0
    {
        type            processor;
        value           uniform 99.4306;
    }
}


// ************************************************************************* //
