/*--------------------------------*- C++ -*----------------------------------*\
| =========                 |                                                 |
| \\      /  F ield         | OpenFOAM: The Open Source CFD Toolbox           |
|  \\    /   O peration     | Version:  2412                                  |
|   \\  /    A nd           | Website:  www.openfoam.com                      |
|    \\/     M anipulation  |                                                 |
\*---------------------------------------------------------------------------*/
FoamFile
{
    version     2.0;
    format      ascii;
    arch        "LSB;label=32;scalar=64";
    class       volVectorField;
    location    "5.8e-06";
    object      rhoU_dof0;
}
// * * * * * * * * * * * * * * * * * * * * * * * * * * * * * * * * * * * * * //

dimensions      [0 0 0 0 0 0 0];

internalField   nonuniform List<vector> 
84
(
(0.0741103 -5.31791e-07 0)
(0.0192116 -6.36012e-07 0)
(0.0308217 -5.27099e-07 -1.23354e-19)
(0.0741317 -0.000129437 0)
(0.01923 -4.80551e-05 0)
(0.030839 -6.76006e-05 -1.18664e-19)
(0.0741263 -0.000128917 0)
(0.0192277 -4.78394e-05 0)
(0.0308359 -6.731e-05 1.6003e-19)
(0.0741263 -0.000128917 0)
(0.0192277 -4.78394e-05 0)
(0.0308359 -6.731e-05 -2.11678e-19)
(0.0741263 -0.000128917 0)
(0.0192277 -4.78394e-05 0)
(0.0308359 -6.731e-05 -3.20109e-19)
(0.0741263 -0.000128917 0)
(0.0192277 -4.78394e-05 0)
(0.0308359 -6.731e-05 2.08433e-19)
(0.0741263 -0.000128917 0)
(0.0192277 -4.78394e-05 0)
(0.0308359 -6.731e-05 -2.2729e-19)
(0.0741263 -0.000128917 0)
(0.0192277 -4.78394e-05 0)
(0.0308359 -6.731e-05 -2.62346e-19)
(0.0741263 -0.000128917 0)
(0.0192277 -4.78394e-05 0)
(0.0308359 -6.731e-05 1.2176e-19)
(0.0741263 -0.000128917 0)
(0.0192277 -4.78394e-05 0)
(0.0308359 -6.731e-05 -2.28921e-19)
(0.0741263 -0.000128917 0)
(0.0192277 -4.78359e-05 0)
(0.0308359 -6.7308e-05 -6.24676e-19)
(0.0741265 -0.000128933 0)
(0.0192235 -4.74339e-05 0)
(0.0308337 -6.70918e-05 0)
(0.0532507 0.000123905 1.35634e-20)
(0.050782 0.000111745 1.35137e-19)
(0.0512436 0.00011316 1.38742e-20)
(0.0562124 -0.000126235 1.30617e-20)
(0.0534533 -0.000121993 1.45596e-19)
(0.0539489 -0.000122892 -3.7951e-21)
(0.0559006 -0.000125585 -1.83637e-20)
(0.0531718 -0.000121375 -6.88918e-20)
(0.0536609 -0.000122137 -2.36652e-19)
(0.0555902 -0.000124918 2.36726e-20)
(0.0528918 -0.000120762 -3.78336e-21)
(0.053107 -0.000122939 2.63571e-22)
(0.050662 8.71056e-06 2.10615e-19)
(0.0552809 -0.000124291 -3.30497e-20)
(0.0526128 -0.000120183 1.01485e-21)
(0.0528216 -0.000122339 -2.21016e-21)
(0.0531223 -0.000122843 2.12164e-19)
(0.0549711 -0.000118736 -2.32805e-20)
(0.0523334 -0.000115205 -1.41242e-19)
(0.0525356 -0.000117267 9.34265e-21)
(0.0528353 -0.000117753 1.52667e-19)
(0.0546602 -9.35533e-05 2.75038e-20)
(0.0520529 -9.24133e-05 -2.78418e-21)
(0.0522486 -9.39426e-05 -3.44185e-23)
(0.0525471 -9.43377e-05 -1.21009e-21)
(0.0543562 -7.80809e-05 3.37157e-20)
(0.0517784 -7.83824e-05 -1.43766e-19)
(0.0519679 -7.96024e-05 1.58033e-19)
(0.0522635 -7.98438e-05 2.20308e-21)
(0.0540371 -6.83177e-05 -1.31484e-20)
(0.0514895 -6.95191e-05 -2.06255e-19)
(0.0516724 -7.05079e-05 -1.92326e-19)
(0.0516765 -7.15459e-05 2.22057e-19)
(0.0507946 9.18377e-06 1.22361e-18)
(0.0537662 -6.64326e-05 2.89329e-20)
(0.0512478 -6.7803e-05 -2.04222e-19)
(0.051425 -6.87133e-05 1.51787e-19)
(0.0514256 -6.96909e-05 2.75673e-19)
(0.0517271 -7.04774e-05 1.81148e-19)
(0.0534564 -7.61503e-05 7.22025e-20)
(0.0509677 -7.65354e-05 -4.62735e-21)
(0.0511385 -7.76569e-05 4.70827e-22)
(0.051136 -7.88614e-05 -3.95778e-22)
(0.0515181 -8.51892e-05 -2.17975e-19)
(0.0531636 -9.24516e-05 1.52255e-22)
(0.0507029 -9.11758e-05 1.99759e-19)
(0.0508678 -9.26226e-05 -1.9192e-20)
(0.05116 -9.29703e-05 -2.76266e-19)
)
;

boundaryField
{
    inlet
    {
        type            calculated;
        value           uniform (0.0741049 0 0);
    }
    outlet2
    {
        type            calculated;
        value           uniform (0.0741049 0 0);
    }
    outlet1
    {
        type            calculated;
        value           nonuniform List<vector> 0();
    }
    wall
    {
        type            calculated;
        value           uniform (0.0741049 0 0);
    }
    symmetryBottom
    {
        type            symmetry;
    }
    symmetryZ0
    {
        type            symmetry;
    }
    symmetryZ05
    {
        type            symmetry;
    }
    procBoundary1to0
    {
        type            processor;
        value           uniform (0.0741049 0 0);
    }
}


// ************************************************************************* //
