/*--------------------------------*- C++ -*----------------------------------*\
| =========                 |                                                 |
| \\      /  F ield         | OpenFOAM: The Open Source CFD Toolbox           |
|  \\    /   O peration     | Version:  2412                                  |
|   \\  /    A nd           | Website:  www.openfoam.com                      |
|    \\/     M anipulation  |                                                 |
\*---------------------------------------------------------------------------*/
FoamFile
{
    version     2.0;
    format      ascii;
    arch        "LSB;label=32;scalar=64";
    class       volScalarField;
    location    "5.5e-06";
    object      rho_dof0;
}
// * * * * * * * * * * * * * * * * * * * * * * * * * * * * * * * * * * * * * //

dimensions      [0 0 0 0 0 0 0];

internalField   nonuniform List<scalar> 
84
(
2.75606e-05
1.90357e-05
1.97946e-05
1.97513e-05
1.97544e-05
1.97555e-05
1.97567e-05
1.98782e-05
2.89523e-05
2.00195e-05
2.08303e-05
2.08008e-05
2.08202e-05
2.08381e-05
2.08566e-05
2.09832e-05
2.86956e-05
2.00192e-05
2.07087e-05
2.069e-05
2.07068e-05
2.07229e-05
2.07395e-05
2.08656e-05
2.85874e-05
1.98277e-05
2.06242e-05
2.05921e-05
2.06084e-05
2.06231e-05
2.07486e-05
2.85312e-05
1.97171e-05
2.05137e-05
2.04798e-05
2.04943e-05
2.05071e-05
2.06321e-05
2.83829e-05
1.96121e-05
2.0403e-05
2.03676e-05
2.03802e-05
2.03911e-05
2.05156e-05
2.82342e-05
1.95079e-05
2.02926e-05
2.02557e-05
2.02665e-05
2.02755e-05
2.03995e-05
2.80305e-05
1.9463e-05
2.01777e-05
2.01462e-05
2.01548e-05
2.0162e-05
2.02855e-05
2.7894e-05
1.93047e-05
2.00753e-05
2.00355e-05
2.00428e-05
2.01657e-05
2.78106e-05
1.92063e-05
1.99756e-05
1.99345e-05
1.99403e-05
2.00627e-05
2.76315e-05
1.91026e-05
1.98626e-05
1.982e-05
1.98239e-05
1.99458e-05
2.73534e-05
1.90309e-05
1.97526e-05
1.97118e-05
1.97137e-05
1.97139e-05
1.98354e-05
)
;

boundaryField
{
    inlet
    {
        type            calculated;
        value           nonuniform List<scalar> 0();
    }
    outlet2
    {
        type            calculated;
        value           uniform 2.81085e-05;
    }
    outlet1
    {
        type            calculated;
        value           uniform 2.81085e-05;
    }
    wall
    {
        type            calculated;
        value           uniform 2.81085e-05;
    }
    symmetryBottom
    {
        type            symmetry;
    }
    symmetryZ0
    {
        type            symmetry;
    }
    symmetryZ05
    {
        type            symmetry;
    }
    procBoundary0to1
    {
        type            processor;
        value           uniform 2.81085e-05;
    }
}


// ************************************************************************* //
