/*--------------------------------*- C++ -*----------------------------------*\
| =========                 |                                                 |
| \\      /  F ield         | OpenFOAM: The Open Source CFD Toolbox           |
|  \\    /   O peration     | Version:  2412                                  |
|   \\  /    A nd           | Website:  www.openfoam.com                      |
|    \\/     M anipulation  |                                                 |
\*---------------------------------------------------------------------------*/
FoamFile
{
    version     2.0;
    format      ascii;
    arch        "LSB;label=32;scalar=64";
    class       volVectorField;
    location    "5.5e-06";
    object      rhoU;
}
// * * * * * * * * * * * * * * * * * * * * * * * * * * * * * * * * * * * * * //

dimensions      [0 0 0 0 0 0 0];

internalField   nonuniform List<vector> 
84
(
(0.0726126 0.000155883 1.5572e-19)
(0.0500333 0.000109681 -1.54622e-19)
(0.0520551 0.000115595 -2.78049e-19)
(0.0519387 0.000117026 1.6997e-19)
(0.0519465 0.000118769 -2.04158e-20)
(0.0519491 0.000120553 2.08393e-20)
(0.0519519 0.000122392 2.63268e-19)
(0.0522737 0.00012297 3.82673e-20)
(0.0763323 -0.0001674 1.5922e-19)
(0.052658 -0.000119485 -1.53126e-19)
(0.0548193 -0.000125567 -3.56022e-19)
(0.0547394 -0.00012733 3.96972e-20)
(0.0547909 -0.000129393 -6.70669e-19)
(0.0548383 -0.000131513 1.47201e-19)
(0.0548874 -0.000133705 5.3781e-19)
(0.0552227 -0.000134296 1.09413e-19)
(0.0756504 -0.000151696 -6.47241e-19)
(0.0526593 -0.000132205 1.21839e-19)
(0.054497 -0.000123459 2.09187e-19)
(0.0544462 -0.000126765 -2.16175e-20)
(0.0544908 -0.00012871 -8.68041e-21)
(0.0545334 -0.000130813 2.63017e-19)
(0.0545774 -0.000132981 -2.29809e-19)
(0.0549113 -0.000133571 -2.52644e-19)
(0.0753634 -0.000156858 -6.26219e-19)
(0.0521507 -0.000120598 2.94038e-19)
(0.0542737 -0.000126241 -2.9852e-20)
(0.0541871 -0.000128029 -6.01368e-19)
(0.0542303 -0.000130116 5.91103e-19)
(0.0542691 -0.000132262 1.01775e-19)
(0.0546016 -0.000132849 -2.30748e-19)
(0.0752155 -0.000167728 -3.95803e-19)
(0.0518578 -0.000119329 -1.03914e-19)
(0.0539811 -0.000125653 1.06131e-20)
(0.0538898 -0.000127392 3.24395e-21)
(0.0539281 -0.00012946 -2.1696e-19)
(0.053962 -0.000131584 1.72294e-19)
(0.0542931 -0.00013217 3.73581e-19)
(0.0748218 -0.000160984 -2.37471e-19)
(0.0515792 -0.000114337 3.17361e-19)
(0.0536874 -0.000120463 -3.13279e-20)
(0.053592 -0.000122153 3.79761e-19)
(0.0536255 -0.000124163 -3.47967e-19)
(0.0536544 -0.000126229 2.95226e-19)
(0.0539842 -0.000126793 -6.43398e-19)
(0.0744249 -0.000128939 -8.13788e-23)
(0.0513009 -9.16984e-05 2.99841e-19)
(0.0533924 -9.64928e-05 -3.03406e-20)
(0.0532932 -9.78489e-05 6.91259e-22)
(0.0533218 -9.94474e-05 3.13929e-19)
(0.0533456 -0.00010109 4.21542e-20)
(0.053674 -0.000101544 3.11688e-19)
(0.0738835 -9.66642e-05 5.30344e-21)
(0.0511815 -8.81713e-05 3.8713e-21)
(0.053087 -8.06039e-05 -1.5903e-21)
(0.053002 -8.29968e-05 -4.00807e-21)
(0.0530248 -8.42843e-05 -8.38053e-22)
(0.0530439 -8.569e-05 1.81443e-21)
(0.0533709 -8.6074e-05 -2.59526e-19)
(0.0735193 -9.17469e-05 8.41674e-19)
(0.0507592 -7.01855e-05 -7.38062e-20)
(0.0528135 -7.35536e-05 -6.57545e-19)
(0.0527066 -7.45845e-05 -2.12006e-19)
(0.0527257 -7.57964e-05 3.59318e-19)
(0.0530511 -7.61406e-05 -3.72972e-20)
(0.0733022 -9.61278e-05 -2.9959e-19)
(0.0505059 -6.79999e-05 2.6453e-20)
(0.0525561 -7.16388e-05 -3.03344e-19)
(0.0524457 -7.25813e-05 3.35717e-19)
(0.0524611 -7.37145e-05 5.59658e-19)
(0.0527852 -7.40546e-05 -5.74963e-20)
(0.0728286 -0.000101655 -4.22724e-19)
(0.0502313 -7.76522e-05 3.61802e-20)
(0.0522566 -8.09247e-05 -1.38545e-21)
(0.0521425 -8.20578e-05 5.87937e-19)
(0.0521529 -8.33516e-05 6.07308e-19)
(0.0524756 -8.37345e-05 2.46265e-20)
(0.0720929 -1.37971e-05 -2.82386e-20)
(0.0500418 -0.00010385 1.74548e-21)
(0.051966 -9.41176e-05 -7.63048e-23)
(0.0518565 -9.64143e-05 3.56336e-19)
(0.0518618 -9.7847e-05 -3.57365e-20)
(0.0518623 -9.93741e-05 2.20088e-21)
(0.0521839 -9.98351e-05 -3.01112e-19)
)
;

boundaryField
{
    inlet
    {
        type            calculated;
        value           nonuniform List<vector> 0();
    }
    outlet2
    {
        type            calculated;
        value           uniform (0 0 0);
    }
    outlet1
    {
        type            calculated;
        value           uniform (0 0 0);
    }
    wall
    {
        type            calculated;
        value           uniform (0 0 0);
    }
    symmetryBottom
    {
        type            symmetry;
    }
    symmetryZ0
    {
        type            symmetry;
    }
    symmetryZ05
    {
        type            symmetry;
    }
    procBoundary0to1
    {
        type            processor;
        value           uniform (0 0 0);
    }
}


// ************************************************************************* //
