/*--------------------------------*- C++ -*----------------------------------*\
| =========                 |                                                 |
| \\      /  F ield         | OpenFOAM: The Open Source CFD Toolbox           |
|  \\    /   O peration     | Version:  2412                                  |
|   \\  /    A nd           | Website:  www.openfoam.com                      |
|    \\/     M anipulation  |                                                 |
\*---------------------------------------------------------------------------*/
FoamFile
{
    version     2.0;
    format      ascii;
    arch        "LSB;label=32;scalar=64";
    class       volScalarField;
    location    "5.5e-06";
    object      T;
}
// * * * * * * * * * * * * * * * * * * * * * * * * * * * * * * * * * * * * * //

dimensions      [0 0 0 0 0 0 0];

internalField   nonuniform List<scalar> 
84
(
203.341
203.392
203.485
203.532
203.587
203.643
203.701
203.696
199.981
199.959
200.003
199.997
199.998
199.998
199.998
199.998
199.963
199.961
200.002
199.997
199.998
199.998
199.998
199.998
199.986
199.958
200.004
199.997
199.998
199.998
199.998
199.987
199.961
200.008
200.002
200.002
200.002
200.003
200.484
200.493
200.539
200.538
200.544
200.549
200.548
202.976
203.069
203.146
203.188
203.237
203.288
203.282
205.189
205.568
205.593
205.684
205.775
205.868
205.858
214.162
216.054
216.18
216.468
216.761
216.726
194.029
193.879
193.837
193.73
193.626
193.637
198.478
198.52
198.53
198.5
198.476
198.479
199.86
199.327
199.397
199.38
199.37
199.36
199.361
)
;

boundaryField
{
    inlet
    {
        type            calculated;
        value           nonuniform List<scalar> 0();
    }
    outlet2
    {
        type            calculated;
        value           uniform 0;
    }
    outlet1
    {
        type            calculated;
        value           uniform 0;
    }
    wall
    {
        type            calculated;
        value           uniform 0;
    }
    symmetryBottom
    {
        type            symmetry;
    }
    symmetryZ0
    {
        type            symmetry;
    }
    symmetryZ05
    {
        type            symmetry;
    }
    procBoundary0to1
    {
        type            processor;
        value           uniform 0;
    }
}


// ************************************************************************* //
