/*--------------------------------*- C++ -*----------------------------------*\
| =========                 |                                                 |
| \\      /  F ield         | OpenFOAM: The Open Source CFD Toolbox           |
|  \\    /   O peration     | Version:  2412                                  |
|   \\  /    A nd           | Website:  www.openfoam.com                      |
|    \\/     M anipulation  |                                                 |
\*---------------------------------------------------------------------------*/
FoamFile
{
    version     2.0;
    format      ascii;
    arch        "LSB;label=32;scalar=64";
    class       volVectorField;
    location    "8.7e-06";
    object      rhoU;
}
// * * * * * * * * * * * * * * * * * * * * * * * * * * * * * * * * * * * * * //

dimensions      [0 0 0 0 0 0 0];

internalField   nonuniform List<vector> 
84
(
(0.0759407 -4.46126e-06 3.07277e-19)
(0.0404848 -2.82294e-06 -1.69318e-19)
(0.0429528 -2.9993e-06 -4.76135e-19)
(0.0428507 -3.08553e-06 2.39617e-19)
(0.0428673 -3.17894e-06 -2.24926e-20)
(0.0428818 -3.27636e-06 -1.47705e-20)
(0.0428612 -3.3861e-06 4.25026e-19)
(0.0433495 -3.39653e-06 4.65071e-20)
(0.080966 -0.000276456 2.97227e-19)
(0.0432278 -0.000152692 -1.68088e-19)
(0.0458987 -0.000163682 -5.93765e-19)
(0.0458352 -0.000165929 1.25248e-19)
(0.0458994 -0.000168654 -1.0384e-18)
(0.0459627 -0.00017145 1.30202e-19)
(0.0459947 -0.000174471 8.31405e-19)
(0.0465083 -0.000175832 1.51777e-19)
(0.0799665 -0.000257285 -1.34692e-18)
(0.0432592 -0.000170907 1.50749e-19)
(0.0455334 -0.000163899 2.88636e-19)
(0.0454983 -0.000167736 -2.09263e-20)
(0.045556 -0.000170439 -5.41878e-20)
(0.0456144 -0.000173296 4.49042e-19)
(0.045641 -0.000176381 -3.04916e-19)
(0.0461517 -0.000177752 -3.80669e-19)
(0.0791458 -0.000248244 -1.33495e-18)
(0.0426478 -0.000157521 4.76425e-19)
(0.0452279 -0.000166607 3.11463e-20)
(0.0451587 -0.000169032 -9.69157e-19)
(0.0452147 -0.000171851 8.79901e-19)
(0.0452342 -0.000174886 1.56055e-19)
(0.0457416 -0.00017625 -2.94926e-19)
(0.0791728 -0.000278867 -7.10972e-19)
(0.0422427 -0.000154002 -1.43092e-19)
(0.044845 -0.000165323 1.09975e-20)
(0.0447683 -0.000167601 1.73593e-20)
(0.0448178 -0.000170378 -3.09469e-19)
(0.0448303 -0.000173361 1.88998e-19)
(0.0453346 -0.000174718 5.64191e-19)
(0.0785309 -0.000277185 -4.61569e-19)
(0.0418871 -0.0001527 5.11626e-19)
(0.0444632 -0.000163949 -8.11692e-20)
(0.0443812 -0.000166185 6.41387e-19)
(0.0444244 -0.000168917 -5.85434e-19)
(0.04443 -0.000171849 5.17678e-19)
(0.0449311 -0.000173198 -9.03281e-19)
(0.0778849 -0.000274841 -4.0542e-20)
(0.0415362 -0.000151546 4.81075e-19)
(0.0440844 -0.000162576 -3.43309e-20)
(0.0439975 -0.000164782 -3.13128e-20)
(0.0440344 -0.000167468 5.04683e-19)
(0.0440332 -0.000170349 3.17301e-20)
(0.0445311 -0.000171692 4.73606e-19)
(0.0770552 -0.000253526 6.19349e-21)
(0.0413412 -0.000166378 6.98301e-21)
(0.0436952 -0.000159801 -1.66758e-21)
(0.0436177 -0.000163462 -6.05055e-21)
(0.0436477 -0.000166028 1.89328e-21)
(0.04364 -0.000168863 2.8352e-20)
(0.0441347 -0.000170199 -3.78459e-19)
(0.0763429 -0.000242404 1.5928e-18)
(0.0408766 -0.000153476 -3.28909e-20)
(0.0433544 -0.000162306 -9.52866e-19)
(0.0432605 -0.000164596 -3.54579e-19)
(0.0432503 -0.00016739 5.39046e-19)
(0.0437418 -0.000168718 -2.61448e-20)
(0.0760103 -0.000272212 -5.51933e-19)
(0.0405068 -0.000150031 7.23848e-20)
(0.0429805 -0.000161034 -5.31261e-19)
(0.0428805 -0.000163181 4.74553e-19)
(0.0428639 -0.000165929 8.72426e-19)
(0.0433523 -0.000167251 -7.67592e-20)
(0.075338 -0.000254679 -7.37236e-19)
(0.0401645 -0.000150147 4.97287e-20)
(0.0426086 -0.000159603 -6.31952e-20)
(0.0425039 -0.000161783 8.19667e-19)
(0.042481 -0.000164481 9.33139e-19)
(0.0429663 -0.000165796 2.00173e-20)
(0.0740727 -1.45121e-05 -3.63952e-20)
(0.0399054 -0.000176822 2.73943e-21)
(0.0422329 -0.000153705 -4.1097e-20)
(0.042128 -0.000157949 5.79706e-19)
(0.0421347 -0.000160318 -4.34213e-20)
(0.0421016 -0.000162962 3.75369e-20)
(0.0425839 -0.000164275 -4.79579e-19)
)
;

boundaryField
{
    inlet
    {
        type            calculated;
        value           nonuniform List<vector> 0();
    }
    outlet2
    {
        type            calculated;
        value           uniform (0 0 0);
    }
    outlet1
    {
        type            calculated;
        value           uniform (0 0 0);
    }
    wall
    {
        type            calculated;
        value           uniform (0 0 0);
    }
    symmetryBottom
    {
        type            symmetry;
    }
    symmetryZ0
    {
        type            symmetry;
    }
    symmetryZ05
    {
        type            symmetry;
    }
    procBoundary0to1
    {
        type            processor;
        value           uniform (0 0 0);
    }
}


// ************************************************************************* //
