/*--------------------------------*- C++ -*----------------------------------*\
| =========                 |                                                 |
| \\      /  F ield         | OpenFOAM: The Open Source CFD Toolbox           |
|  \\    /   O peration     | Version:  2412                                  |
|   \\  /    A nd           | Website:  www.openfoam.com                      |
|    \\/     M anipulation  |                                                 |
\*---------------------------------------------------------------------------*/
FoamFile
{
    version     2.0;
    format      ascii;
    arch        "LSB;label=32;scalar=64";
    class       volVectorField;
    location    "8.7e-06";
    object      U;
}
// * * * * * * * * * * * * * * * * * * * * * * * * * * * * * * * * * * * * * //

dimensions      [0 0 0 0 0 0 0];

internalField   nonuniform List<vector> 
84
(
(2636.39 -0.154879 1.06676e-14)
(2625.19 -0.18305 -1.09792e-14)
(2627.41 -0.183466 -2.9125e-14)
(2627.27 -0.18918 1.46914e-14)
(2627.27 -0.194832 -1.37854e-15)
(2627.27 -0.200735 -9.04957e-16)
(2627.24 -0.207556 2.60526e-14)
(2627.46 -0.205867 2.81884e-15)
(2637.74 -9.00649 9.68318e-15)
(2626.68 -9.27809 -1.02137e-14)
(2628.89 -9.37503 -3.40085e-14)
(2628.77 -9.51649 7.18332e-15)
(2628.8 -9.65934 -5.94723e-14)
(2628.82 -9.80602 7.44688e-15)
(2628.82 -9.97185 4.75188e-14)
(2629.03 -9.9395 8.57969e-15)
(2637.49 -8.48589 -4.44247e-14)
(2626.88 -10.3782 9.15413e-15)
(2628.75 -9.46229 1.66637e-14)
(2628.67 -9.69099 -1.20902e-15)
(2628.69 -9.83476 -3.12677e-15)
(2628.71 -9.98685 2.58779e-14)
(2628.71 -10.1587 -1.75617e-14)
(2628.92 -10.1252 -2.16839e-14)
(2637.29 -8.27197 -4.44829e-14)
(2626.51 -9.7011 2.93411e-14)
(2628.66 -9.68324 1.81024e-15)
(2628.55 -9.8388 -5.64116e-14)
(2628.57 -9.99062 5.11533e-14)
(2628.56 -10.1626 9.0684e-15)
(2628.78 -10.1291 -1.69495e-14)
(2637.4 -9.28958 -2.36838e-14)
(2626.32 -9.57461 -8.8963e-15)
(2628.53 -9.69019 6.44603e-16)
(2628.41 -9.84009 1.01919e-15)
(2628.43 -9.99215 -1.81494e-14)
(2628.42 -10.1642 1.1081e-14)
(2628.64 -10.1307 3.27136e-14)
(2637.27 -9.3086 -1.55007e-14)
(2626.18 -9.57378 3.20773e-14)
(2628.4 -9.6917 -4.79823e-15)
(2628.27 -9.84155 3.79832e-14)
(2628.29 -9.99365 -3.46362e-14)
(2628.28 -10.1658 3.06235e-14)
(2628.5 -10.1322 -5.28425e-14)
(2637.14 -9.30596 -1.37273e-15)
(2626.05 -9.58121 3.04151e-14)
(2628.26 -9.69256 -2.04676e-15)
(2628.13 -9.84304 -1.87043e-15)
(2628.15 -9.99516 3.01216e-14)
(2628.14 -10.1674 1.89382e-15)
(2628.36 -10.1338 2.79536e-14)
(2636.95 -8.67607 2.11951e-16)
(2626.06 -10.5686 4.43571e-16)
(2628.11 -9.61144 -1.00299e-16)
(2628 -9.8487 -3.6455e-16)
(2628.01 -9.99651 1.13994e-16)
(2627.99 -10.1689 1.70735e-15)
(2628.21 -10.1353 -2.25372e-14)
(2636.78 -8.37229 5.50132e-14)
(2625.81 -9.85889 -2.11283e-15)
(2627.99 -9.83841 -5.77594e-14)
(2627.87 -9.99845 -2.1539e-14)
(2627.85 -10.1705 3.2752e-14)
(2628.07 -10.1369 -1.57082e-15)
(2636.76 -9.4429 -1.91463e-14)
(2625.64 -9.72497 4.69197e-15)
(2627.86 -9.8457 -3.24817e-14)
(2627.73 -9.99975 2.90807e-14)
(2627.71 -10.172 5.34828e-14)
(2627.93 -10.1384 -4.65299e-15)
(2636.61 -8.91303 -2.58012e-14)
(2625.51 -9.81495 3.25071e-15)
(2627.72 -9.84291 -3.89732e-15)
(2627.59 -10.0014 5.06717e-14)
(2627.57 -10.1736 5.77172e-14)
(2627.79 -10.1399 1.22425e-15)
(2636.38 -0.516511 -1.29537e-15)
(2625.45 -11.6335 1.80232e-16)
(2627.57 -9.56294 -2.5569e-15)
(2627.44 -9.85098 3.61552e-14)
(2627.45 -9.99719 -2.70768e-15)
(2627.42 -10.1699 2.34255e-15)
(2627.65 -10.1366 -2.95925e-14)
)
;

boundaryField
{
    inlet
    {
        type            calculated;
        value           nonuniform List<vector> 0();
    }
    outlet2
    {
        type            calculated;
        value           uniform (0 0 0);
    }
    outlet1
    {
        type            calculated;
        value           uniform (0 0 0);
    }
    wall
    {
        type            calculated;
        value           uniform (0 0 0);
    }
    symmetryBottom
    {
        type            symmetry;
    }
    symmetryZ0
    {
        type            symmetry;
    }
    symmetryZ05
    {
        type            symmetry;
    }
    procBoundary0to1
    {
        type            processor;
        value           uniform (0 0 0);
    }
}


// ************************************************************************* //
