/*--------------------------------*- C++ -*----------------------------------*\
| =========                 |                                                 |
| \\      /  F ield         | OpenFOAM: The Open Source CFD Toolbox           |
|  \\    /   O peration     | Version:  2412                                  |
|   \\  /    A nd           | Website:  www.openfoam.com                      |
|    \\/     M anipulation  |                                                 |
\*---------------------------------------------------------------------------*/
FoamFile
{
    version     2.0;
    format      ascii;
    arch        "LSB;label=32;scalar=64";
    class       volScalarField;
    location    "7.9e-06";
    object      E_dof0;
}
// * * * * * * * * * * * * * * * * * * * * * * * * * * * * * * * * * * * * * //

dimensions      [0 0 0 0 0 0 0];

internalField   nonuniform List<scalar> 
84
(
99.4429
6.11203
32.4289
99.4909
6.13629
32.4575
99.4787
6.13358
32.4516
99.4787
6.13357
32.4516
99.4787
6.13357
32.4516
99.4787
6.13357
32.4516
99.4787
6.13357
32.4516
99.4787
6.13357
32.4516
99.4787
6.13357
32.4516
99.4787
6.13357
32.4516
99.4787
6.1335
32.4516
99.479
6.12691
32.4492
64.3053
59.0737
60.0646
69.3012
63.3339
64.4282
68.7686
62.8795
63.9557
68.2392
62.4283
63.0407
58.9456
67.7126
61.9795
62.5769
63.0584
67.1882
61.5323
62.1148
62.5941
66.6764
61.0951
61.6633
62.1403
66.181
60.6713
61.226
61.6966
65.72
60.2704
60.8136
60.8001
59.2299
65.101
59.7571
60.2805
60.2598
60.7555
64.6099
59.3363
59.8461
59.8217
60.5101
64.1297
58.925
59.422
59.8858
)
;

boundaryField
{
    inlet
    {
        type            calculated;
        value           uniform 99.4306;
    }
    outlet2
    {
        type            calculated;
        value           uniform 99.4306;
    }
    outlet1
    {
        type            calculated;
        value           nonuniform List<scalar> 0();
    }
    wall
    {
        type            calculated;
        value           uniform 99.4306;
    }
    symmetryBottom
    {
        type            symmetry;
    }
    symmetryZ0
    {
        type            symmetry;
    }
    symmetryZ05
    {
        type            symmetry;
    }
    procBoundary1to0
    {
        type            processor;
        value           uniform 99.4306;
    }
}


// ************************************************************************* //
