/*--------------------------------*- C++ -*----------------------------------*\
| =========                 |                                                 |
| \\      /  F ield         | OpenFOAM: The Open Source CFD Toolbox           |
|  \\    /   O peration     | Version:  2412                                  |
|   \\  /    A nd           | Website:  www.openfoam.com                      |
|    \\/     M anipulation  |                                                 |
\*---------------------------------------------------------------------------*/
FoamFile
{
    version     2.0;
    format      ascii;
    arch        "LSB;label=32;scalar=64";
    class       volScalarField;
    location    "7.9e-06";
    object      T;
}
// * * * * * * * * * * * * * * * * * * * * * * * * * * * * * * * * * * * * * //

dimensions      [0 0 0 0 0 0 0];

internalField   nonuniform List<scalar> 
84
(
200.017
164.538
200.491
199.962
164.292
200.383
199.948
164.241
200.363
199.948
164.24
200.363
199.948
164.24
200.363
199.948
164.24
200.363
199.948
164.24
200.363
199.948
164.24
200.363
199.948
164.24
200.363
199.948
164.24
200.363
199.948
164.238
200.363
199.948
164.072
200.354
205.052
204.672
204.723
200.025
199.979
200
200.026
199.979
200.001
200.026
199.979
199.999
200.046
200.033
199.986
200.007
200.005
200.71
200.604
200.634
200.63
204.493
204.133
204.25
204.236
208.078
207.464
207.663
207.641
224.353
222.162
222.833
223.206
197.126
191.388
191.824
191.664
191.538
190.95
197.934
198.023
197.997
197.967
198.157
199.147
199.159
199.159
199.159
)
;

boundaryField
{
    inlet
    {
        type            calculated;
        value           uniform 0;
    }
    outlet2
    {
        type            calculated;
        value           uniform 0;
    }
    outlet1
    {
        type            calculated;
        value           nonuniform List<scalar> 0();
    }
    wall
    {
        type            calculated;
        value           uniform 0;
    }
    symmetryBottom
    {
        type            symmetry;
    }
    symmetryZ0
    {
        type            symmetry;
    }
    symmetryZ05
    {
        type            symmetry;
    }
    procBoundary1to0
    {
        type            processor;
        value           uniform 0;
    }
}


// ************************************************************************* //
