/*--------------------------------*- C++ -*----------------------------------*\
| =========                 |                                                 |
| \\      /  F ield         | OpenFOAM: The Open Source CFD Toolbox           |
|  \\    /   O peration     | Version:  2412                                  |
|   \\  /    A nd           | Website:  www.openfoam.com                      |
|    \\/     M anipulation  |                                                 |
\*---------------------------------------------------------------------------*/
FoamFile
{
    version     2.0;
    format      ascii;
    arch        "LSB;label=32;scalar=64";
    class       volScalarField;
    location    "8.7e-06";
    object      T;
}
// * * * * * * * * * * * * * * * * * * * * * * * * * * * * * * * * * * * * * //

dimensions      [0 0 0 0 0 0 0];

internalField   nonuniform List<scalar> 
84
(
200.06
192.182
198.041
200.023
191.972
199.349
200.047
191.991
199.413
200.047
191.97
199.434
200.047
191.949
199.454
200.047
191.928
199.474
200.047
191.908
199.493
200.047
191.887
199.512
200.047
191.866
199.531
200.047
191.846
199.549
200.047
191.825
199.566
200.048
191.806
199.584
203.336
203.196
203.111
200.037
199.998
199.924
200.032
199.995
199.927
200.032
199.988
199.997
199.831
200.032
199.988
200.007
199.879
200.032
199.989
200.003
199.919
200.032
199.989
200.003
199.92
200.032
199.989
200.003
199.925
200.032
199.989
199.997
199.992
199.856
200.032
199.989
199.996
200.006
199.878
200.031
199.989
199.996
200.006
199.861
200.032
199.989
200.004
199.911
)
;

boundaryField
{
    inlet
    {
        type            calculated;
        value           uniform 0;
    }
    outlet2
    {
        type            calculated;
        value           uniform 0;
    }
    outlet1
    {
        type            calculated;
        value           nonuniform List<scalar> 0();
    }
    wall
    {
        type            calculated;
        value           uniform 0;
    }
    symmetryBottom
    {
        type            symmetry;
    }
    symmetryZ0
    {
        type            symmetry;
    }
    symmetryZ05
    {
        type            symmetry;
    }
    procBoundary1to0
    {
        type            processor;
        value           uniform 0;
    }
}


// ************************************************************************* //
