/*--------------------------------*- C++ -*----------------------------------*\
| =========                 |                                                 |
| \\      /  F ield         | OpenFOAM: The Open Source CFD Toolbox           |
|  \\    /   O peration     | Version:  2412                                  |
|   \\  /    A nd           | Website:  www.openfoam.com                      |
|    \\/     M anipulation  |                                                 |
\*---------------------------------------------------------------------------*/
FoamFile
{
    version     2.0;
    format      ascii;
    arch        "LSB;label=32;scalar=64";
    class       volVectorField;
    location    "8.7e-06";
    object      U;
}
// * * * * * * * * * * * * * * * * * * * * * * * * * * * * * * * * * * * * * //

dimensions      [0 0 0 0 0 0 0];

internalField   nonuniform List<vector> 
84
(
(2640.39 0.00531512 -9.68586e-17)
(2559.12 -0.135063 7.35609e-15)
(2605.29 0.011424 -2.18636e-14)
(2640.38 -7.40185 -1.02547e-16)
(2559.8 -10.5371 7.71378e-15)
(2603.41 -8.98681 -2.36285e-14)
(2640.38 -7.40187 1.34767e-16)
(2559.72 -10.5502 -1.01256e-14)
(2603.63 -8.91405 3.08486e-14)
(2640.38 -7.40208 -1.75989e-16)
(2559.64 -10.5523 1.32198e-14)
(2603.86 -8.91188 -4.04442e-14)
(2640.39 -7.40209 -3.12743e-16)
(2559.55 -10.5539 2.33471e-14)
(2604.09 -8.91036 -6.9189e-14)
(2640.39 -7.40209 1.71297e-16)
(2559.47 -10.5555 -1.27937e-14)
(2604.32 -8.90869 3.83282e-14)
(2640.39 -7.4021 -2.29328e-16)
(2559.38 -10.5571 1.72517e-14)
(2604.55 -8.90705 -5.14959e-14)
(2640.39 -7.4021 -2.66185e-16)
(2559.3 -10.5587 2.00177e-14)
(2604.77 -8.90542 -5.95859e-14)
(2640.39 -7.4021 9.90805e-17)
(2559.22 -10.5603 -7.43525e-15)
(2604.99 -8.90383 2.17727e-14)
(2640.39 -7.40211 -2.26166e-16)
(2559.13 -10.5619 1.72215e-14)
(2605.21 -8.90225 -5.16685e-14)
(2640.39 -7.40212 -5.86282e-16)
(2559.05 -10.5635 4.44673e-14)
(2605.42 -8.9007 -1.31213e-13)
(2640.39 -7.40837 1.67388e-19)
(2558.97 -10.4435 -3.59025e-17)
(2605.63 -8.8453 3.21095e-16)
(2628.92 -0.16271 -9.80015e-17)
(2627.24 -0.164485 1.12538e-14)
(2625.49 -0.1662 -1.10099e-15)
(2630.37 -8.71684 -6.151e-17)
(2628.64 -8.87324 1.08212e-14)
(2626.9 -8.8312 -1.23395e-15)
(2630.26 -8.86664 -5.7976e-16)
(2628.54 -9.01787 -3.88354e-15)
(2626.84 -9.06951 -1.6508e-14)
(2630.13 -8.87092 1.12315e-15)
(2628.3 -8.98216 -2.08791e-16)
(2628.78 -9.84614 -1.45037e-15)
(2624.66 2.93901 2.37805e-14)
(2630 -8.87133 -2.91438e-15)
(2628.19 -9.01335 1.0682e-16)
(2628.45 -9.16897 -1.45037e-15)
(2626.53 -8.91467 1.95626e-14)
(2629.87 -8.8726 -3.98962e-16)
(2628.06 -9.01536 -1.09833e-14)
(2628.32 -9.15392 -3.9518e-16)
(2626.43 -9.10773 1.35135e-14)
(2629.73 -8.8739 1.45288e-15)
(2627.94 -9.01658 -1.9958e-16)
(2628.19 -9.15499 -1.02803e-16)
(2626.3 -9.11143 -1.51346e-17)
(2629.6 -8.87519 2.56077e-15)
(2627.81 -9.01789 -1.20547e-14)
(2628.06 -9.15304 1.1615e-14)
(2626.19 -9.19532 6.10691e-17)
(2629.47 -8.87645 4.91265e-16)
(2627.69 -9.02059 -1.54425e-14)
(2627.83 -9.11298 -1.61166e-14)
(2628.03 -10.0301 9.95303e-15)
(2625.15 2.84645 1.16452e-13)
(2629.33 -8.87778 2.71723e-15)
(2627.57 -9.02077 -1.73755e-14)
(2627.71 -9.14652 1.05852e-14)
(2627.81 -9.2983 2.55656e-14)
(2625.92 -9.16218 1.84661e-14)
(2629.2 -8.87908 4.08245e-15)
(2627.44 -9.02191 -2.46892e-16)
(2627.58 -9.15063 5.42635e-18)
(2627.67 -9.22933 1.09246e-15)
(2625.83 -10.1699 -1.49394e-14)
(2629.07 -8.87769 -1.15442e-15)
(2627.31 -9.01803 1.72071e-14)
(2627.55 -9.11259 7.48396e-16)
(2625.71 -10.1638 -2.88442e-14)
)
;

boundaryField
{
    inlet
    {
        type            calculated;
        value           uniform (0 0 0);
    }
    outlet2
    {
        type            calculated;
        value           uniform (0 0 0);
    }
    outlet1
    {
        type            calculated;
        value           nonuniform List<vector> 0();
    }
    wall
    {
        type            calculated;
        value           uniform (0 0 0);
    }
    symmetryBottom
    {
        type            symmetry;
    }
    symmetryZ0
    {
        type            symmetry;
    }
    symmetryZ05
    {
        type            symmetry;
    }
    procBoundary1to0
    {
        type            processor;
        value           uniform (0 0 0);
    }
}


// ************************************************************************* //
