/*--------------------------------*- C++ -*----------------------------------*\
| =========                 |                                                 |
| \\      /  F ield         | OpenFOAM: The Open Source CFD Toolbox           |
|  \\    /   O peration     | Version:  2412                                  |
|   \\  /    A nd           | Website:  www.openfoam.com                      |
|    \\/     M anipulation  |                                                 |
\*---------------------------------------------------------------------------*/
FoamFile
{
    version     2.0;
    format      ascii;
    arch        "LSB;label=32;scalar=64";
    class       volScalarField;
    location    "5.7e-06";
    object      rho_dof0;
}
// * * * * * * * * * * * * * * * * * * * * * * * * * * * * * * * * * * * * * //

dimensions      [0 0 0 0 0 0 0];

internalField   nonuniform List<scalar> 
84
(
2.81105e-05
7.66761e-06
1.18982e-05
2.81184e-05
7.67459e-06
1.19047e-05
2.81164e-05
7.6737e-06
1.19035e-05
2.81164e-05
7.6737e-06
1.19035e-05
2.81164e-05
7.6737e-06
1.19035e-05
2.81164e-05
7.6737e-06
1.19035e-05
2.81164e-05
7.6737e-06
1.19035e-05
2.81164e-05
7.6737e-06
1.19035e-05
2.81164e-05
7.6737e-06
1.19035e-05
2.81164e-05
7.6737e-06
1.19035e-05
2.81164e-05
7.67368e-06
1.19035e-05
2.81164e-05
7.67213e-06
1.19027e-05
2.0345e-05
1.94413e-05
1.96108e-05
2.14397e-05
2.04317e-05
2.06133e-05
2.13236e-05
2.03265e-05
2.05058e-05
2.1208e-05
2.0222e-05
2.02992e-05
1.93878e-05
2.10928e-05
2.01177e-05
2.01926e-05
2.03049e-05
2.09777e-05
2.00136e-05
2.0086e-05
2.01979e-05
2.08628e-05
1.99097e-05
1.99798e-05
2.00913e-05
2.07499e-05
1.98076e-05
1.98754e-05
1.99859e-05
2.06317e-05
1.97007e-05
1.97661e-05
1.97679e-05
1.94368e-05
2.05291e-05
1.96077e-05
1.9671e-05
1.96715e-05
1.97839e-05
2.04136e-05
1.95032e-05
1.95642e-05
1.95634e-05
1.97054e-05
2.03042e-05
1.9404e-05
1.94628e-05
1.95719e-05
)
;

boundaryField
{
    inlet
    {
        type            calculated;
        value           uniform 2.81085e-05;
    }
    outlet2
    {
        type            calculated;
        value           uniform 2.81085e-05;
    }
    outlet1
    {
        type            calculated;
        value           nonuniform List<scalar> 0();
    }
    wall
    {
        type            calculated;
        value           uniform 2.81085e-05;
    }
    symmetryBottom
    {
        type            symmetry;
    }
    symmetryZ0
    {
        type            symmetry;
    }
    symmetryZ05
    {
        type            symmetry;
    }
    procBoundary1to0
    {
        type            processor;
        value           uniform 2.81085e-05;
    }
}


// ************************************************************************* //
