/*--------------------------------*- C++ -*----------------------------------*\
| =========                 |                                                 |
| \\      /  F ield         | OpenFOAM: The Open Source CFD Toolbox           |
|  \\    /   O peration     | Version:  2412                                  |
|   \\  /    A nd           | Website:  www.openfoam.com                      |
|    \\/     M anipulation  |                                                 |
\*---------------------------------------------------------------------------*/
FoamFile
{
    version     2.0;
    format      ascii;
    arch        "LSB;label=32;scalar=64";
    class       volVectorField;
    location    "5.7e-06";
    object      rhoU;
}
// * * * * * * * * * * * * * * * * * * * * * * * * * * * * * * * * * * * * * //

dimensions      [0 0 0 0 0 0 0];

internalField   nonuniform List<vector> 
84
(
(0.0741101 -5.15778e-07 0)
(0.0199579 -6.301e-07 0)
(0.0312257 -5.21551e-07 -1.23353e-19)
(0.0741309 -0.000127697 0)
(0.0199762 -4.87068e-05 0)
(0.0312427 -6.73524e-05 -1.19444e-19)
(0.0741257 -0.000127192 0)
(0.0199739 -4.84923e-05 0)
(0.0312397 -6.70676e-05 1.6003e-19)
(0.0741257 -0.000127192 0)
(0.0199739 -4.84923e-05 0)
(0.0312397 -6.70676e-05 -2.10893e-19)
(0.0741257 -0.000127192 0)
(0.0199739 -4.84923e-05 0)
(0.0312397 -6.70676e-05 -3.19327e-19)
(0.0741257 -0.000127192 0)
(0.0199739 -4.84923e-05 0)
(0.0312397 -6.70676e-05 2.08433e-19)
(0.0741257 -0.000127192 0)
(0.0199739 -4.84923e-05 0)
(0.0312397 -6.70676e-05 -2.25724e-19)
(0.0741257 -0.000127192 0)
(0.0199739 -4.84923e-05 0)
(0.0312397 -6.70676e-05 -2.61564e-19)
(0.0741257 -0.000127192 0)
(0.0199739 -4.84923e-05 0)
(0.0312397 -6.70676e-05 1.21761e-19)
(0.0741257 -0.000127192 0)
(0.0199739 -4.84922e-05 0)
(0.0312397 -6.70676e-05 -2.28134e-19)
(0.0741257 -0.000127192 0)
(0.0199738 -4.84888e-05 0)
(0.0312397 -6.70656e-05 -6.23109e-19)
(0.0741258 -0.000127208 0)
(0.0199698 -4.80911e-05 0)
(0.0312375 -6.68484e-05 0)
(0.0535207 0.000122368 1.32041e-20)
(0.0511177 0.000110631 1.32977e-19)
(0.0515682 0.000111985 1.36792e-20)
(0.0564435 -0.000124567 1.27157e-20)
(0.0537605 -0.000120573 1.43441e-19)
(0.0542434 -0.000121432 -3.68615e-21)
(0.056136 -0.000123938 -1.79019e-20)
(0.0534822 -0.000119973 -6.7828e-20)
(0.0539588 -0.0001207 -2.35236e-19)
(0.0558299 -0.000123292 2.30639e-20)
(0.0532054 -0.000119378 -3.68437e-21)
(0.0534118 -0.000121508 2.53066e-22)
(0.0509983 8.44849e-06 2.10622e-19)
(0.0555248 -0.000122684 -3.41787e-20)
(0.0529295 -0.000118816 9.84526e-22)
(0.0531297 -0.000120926 -2.18103e-21)
(0.053427 -0.000121415 2.12036e-19)
(0.0552193 -0.000117179 -2.26756e-20)
(0.0526533 -0.000113869 -1.39102e-19)
(0.0528471 -0.000115888 8.98322e-21)
(0.0531433 -0.000116359 1.49965e-19)
(0.0549126 -9.23556e-05 2.68595e-20)
(0.0523759 -9.13487e-05 -2.67234e-21)
(0.0525634 -9.28485e-05 -5.98457e-23)
(0.0528585 -9.3232e-05 -1.19248e-21)
(0.0546127 -7.70826e-05 3.29526e-20)
(0.0521044 -7.74666e-05 -1.41445e-19)
(0.0522858 -7.86647e-05 1.55399e-19)
(0.0525781 -7.88991e-05 2.14791e-21)
(0.0542982 -6.7493e-05 -1.27981e-20)
(0.0518189 -6.87402e-05 -2.05605e-19)
(0.0519939 -6.97141e-05 -1.90945e-19)
(0.0519984 -7.07402e-05 2.20716e-19)
(0.0511269 8.90974e-06 1.21169e-18)
(0.0540303 -6.56808e-05 2.82629e-20)
(0.0515793 -6.70857e-05 -2.02137e-19)
(0.0517487 -6.79843e-05 1.50262e-19)
(0.0517498 -6.89519e-05 2.74321e-19)
(0.0520475 -6.97131e-05 1.79789e-19)
(0.0537248 -7.52575e-05 7.03892e-20)
(0.0513024 -7.5714e-05 -4.42143e-21)
(0.0514656 -7.68178e-05 4.54548e-22)
(0.0514635 -7.80078e-05 -3.82768e-22)
(0.0518394 -8.41422e-05 -2.16629e-19)
(0.0534357 -9.136e-05 1.5036e-22)
(0.0510403 -9.02127e-05 1.96457e-19)
(0.0511978 -9.16337e-05 -1.86125e-20)
(0.0514867 -9.19715e-05 -2.74926e-19)
)
;

boundaryField
{
    inlet
    {
        type            calculated;
        value           uniform (0 0 0);
    }
    outlet2
    {
        type            calculated;
        value           uniform (0 0 0);
    }
    outlet1
    {
        type            calculated;
        value           nonuniform List<vector> 0();
    }
    wall
    {
        type            calculated;
        value           uniform (0 0 0);
    }
    symmetryBottom
    {
        type            symmetry;
    }
    symmetryZ0
    {
        type            symmetry;
    }
    symmetryZ05
    {
        type            symmetry;
    }
    procBoundary1to0
    {
        type            processor;
        value           uniform (0 0 0);
    }
}


// ************************************************************************* //
