/*--------------------------------*- C++ -*----------------------------------*\
| =========                 |                                                 |
| \\      /  F ield         | OpenFOAM: The Open Source CFD Toolbox           |
|  \\    /   O peration     | Version:  2412                                  |
|   \\  /    A nd           | Website:  www.openfoam.com                      |
|    \\/     M anipulation  |                                                 |
\*---------------------------------------------------------------------------*/
FoamFile
{
    version     2.0;
    format      ascii;
    arch        "LSB;label=32;scalar=64";
    class       volVectorField;
    location    "5.7e-06";
    object      U;
}
// * * * * * * * * * * * * * * * * * * * * * * * * * * * * * * * * * * * * * //

dimensions      [0 0 0 0 0 0 0];

internalField   nonuniform List<vector> 
84
(
(2636.39 -0.0183483 0)
(2602.89 -0.0821768 0)
(2624.41 -0.0438345 -1.03674e-14)
(2636.39 -4.54141 0)
(2602.9 -6.3465 0)
(2624.41 -5.65764 -1.00334e-14)
(2636.39 -4.52378 0)
(2602.9 -6.31929 0)
(2624.41 -5.63426 1.34439e-14)
(2636.39 -4.52378 0)
(2602.9 -6.31928 0)
(2624.41 -5.63426 -1.77168e-14)
(2636.39 -4.52378 0)
(2602.9 -6.31928 0)
(2624.41 -5.63426 -2.68263e-14)
(2636.39 -4.52378 0)
(2602.9 -6.31928 0)
(2624.41 -5.63426 1.75102e-14)
(2636.39 -4.52378 0)
(2602.9 -6.31928 0)
(2624.41 -5.63426 -1.89628e-14)
(2636.39 -4.52378 0)
(2602.9 -6.31928 0)
(2624.41 -5.63426 -2.19736e-14)
(2636.39 -4.52378 0)
(2602.9 -6.31928 0)
(2624.41 -5.63426 1.02289e-14)
(2636.39 -4.52378 0)
(2602.9 -6.31928 0)
(2624.41 -5.63426 -1.91652e-14)
(2636.39 -4.52378 0)
(2602.9 -6.31885 0)
(2624.41 -5.6341 -5.23466e-14)
(2636.39 -4.52434 0)
(2602.9 -6.26828 0)
(2624.41 -5.61625 0)
(2630.66 6.01466 6.49009e-16)
(2629.34 5.69051 6.83992e-15)
(2629.58 5.71038 6.97534e-16)
(2632.67 -5.81013 5.93093e-16)
(2631.23 -5.9013 7.02055e-15)
(2631.48 -5.89098 -1.78824e-16)
(2632.58 -5.81226 -8.39537e-16)
(2631.15 -5.9023 -3.33692e-15)
(2631.4 -5.88613 -1.14717e-14)
(2632.49 -5.81345 1.08751e-15)
(2631.07 -5.90337 -1.82196e-16)
(2631.23 -5.98588 1.24668e-17)
(2630.43 0.435764 1.08637e-14)
(2632.4 -5.81638 -1.62039e-15)
(2630.99 -5.90605 4.89382e-17)
(2631.15 -5.98866 -1.08011e-16)
(2631.24 -5.97961 1.04426e-14)
(2632.28 -5.58588 -1.08094e-15)
(2630.88 -5.68958 -6.95039e-15)
(2631.03 -5.76956 4.47237e-16)
(2631.12 -5.76093 7.42477e-15)
(2632.08 -4.4268 1.28743e-15)
(2630.67 -4.58815 -1.34223e-16)
(2630.82 -4.64712 -2.99531e-18)
(2630.91 -4.64042 -5.93533e-17)
(2631.94 -3.71483 1.58808e-15)
(2630.52 -3.91095 -7.14094e-15)
(2630.68 -3.95789 7.81867e-15)
(2630.76 -3.94775 1.07471e-16)
(2631.79 -3.27133 -6.20313e-16)
(2630.3 -3.48922 -1.04364e-14)
(2630.46 -3.52696 -9.66024e-15)
(2630.45 -3.57854 1.11654e-14)
(2630.41 0.458395 6.234e-14)
(2631.88 -3.19939 1.37672e-15)
(2630.57 -3.4214 -1.0309e-14)
(2630.71 -3.45606 7.63873e-15)
(2630.7 -3.50517 1.39451e-14)
(2630.8 -3.52373 9.08765e-15)
(2631.81 -3.68663 3.44815e-15)
(2630.46 -3.88213 -2.26703e-16)
(2630.61 -3.92646 2.32337e-17)
(2630.6 -3.98743 -1.95655e-17)
(2630.72 -4.27 -1.09934e-14)
(2631.75 -4.49956 7.40535e-18)
(2630.41 -4.64919 1.01246e-14)
(2630.55 -4.70816 -9.56313e-16)
(2630.64 -4.69915 -1.4047e-14)
)
;

boundaryField
{
    inlet
    {
        type            calculated;
        value           uniform (0 0 0);
    }
    outlet2
    {
        type            calculated;
        value           uniform (0 0 0);
    }
    outlet1
    {
        type            calculated;
        value           nonuniform List<vector> 0();
    }
    wall
    {
        type            calculated;
        value           uniform (0 0 0);
    }
    symmetryBottom
    {
        type            symmetry;
    }
    symmetryZ0
    {
        type            symmetry;
    }
    symmetryZ05
    {
        type            symmetry;
    }
    procBoundary1to0
    {
        type            processor;
        value           uniform (0 0 0);
    }
}


// ************************************************************************* //
