/*--------------------------------*- C++ -*----------------------------------*\
| =========                 |                                                 |
| \\      /  F ield         | OpenFOAM: The Open Source CFD Toolbox           |
|  \\    /   O peration     | Version:  2412                                  |
|   \\  /    A nd           | Website:  www.openfoam.com                      |
|    \\/     M anipulation  |                                                 |
\*---------------------------------------------------------------------------*/
FoamFile
{
    version     2.0;
    format      ascii;
    arch        "LSB;label=32;scalar=64";
    class       volScalarField;
    location    "4e-07";
    object      E_dof0;
}
// * * * * * * * * * * * * * * * * * * * * * * * * * * * * * * * * * * * * * //

dimensions      [0 0 0 0 0 0 0];

internalField   nonuniform List<scalar> 
84
(
99.4586
96.8542
96.8673
96.8673
96.8674
96.8675
96.8676
96.9079
99.8297
97.2232
97.2419
97.2475
97.2534
97.2595
97.2658
97.3062
99.7904
97.1867
97.2039
97.209
97.2143
97.2198
97.2255
97.2659
99.7581
97.1529
97.1706
97.1753
97.1801
97.1851
97.2256
99.7217
97.115
97.1321
97.1362
97.1404
97.1448
97.1852
99.6839
97.0774
97.0939
97.0974
97.1011
97.1048
97.1452
99.6469
97.0406
97.0565
97.0595
97.0625
97.0657
97.1061
99.6092
97.0045
97.0194
97.0218
97.0242
97.0268
97.0672
99.5789
96.9734
96.9883
96.9902
96.9922
97.0326
99.5293
96.923
96.9372
96.9383
96.9395
96.9799
99.4934
96.8876
96.9012
96.9018
96.9024
96.9427
99.4176
96.8503
96.8628
96.8628
96.8628
96.8628
96.9032
)
;

boundaryField
{
    inlet
    {
        type            calculated;
        value           nonuniform List<scalar> 0();
    }
    outlet2
    {
        type            calculated;
        value           uniform 99.4306;
    }
    outlet1
    {
        type            calculated;
        value           uniform 99.4306;
    }
    wall
    {
        type            calculated;
        value           uniform 99.4306;
    }
    symmetryBottom
    {
        type            symmetry;
    }
    symmetryZ0
    {
        type            symmetry;
    }
    symmetryZ05
    {
        type            symmetry;
    }
    procBoundary0to1
    {
        type            processor;
        value           uniform 99.4306;
    }
}


// ************************************************************************* //
