/*--------------------------------*- C++ -*----------------------------------*\
| =========                 |                                                 |
| \\      /  F ield         | OpenFOAM: The Open Source CFD Toolbox           |
|  \\    /   O peration     | Version:  2412                                  |
|   \\  /    A nd           | Website:  www.openfoam.com                      |
|    \\/     M anipulation  |                                                 |
\*---------------------------------------------------------------------------*/
FoamFile
{
    version     2.0;
    format      ascii;
    arch        "LSB;label=32;scalar=64";
    class       volVectorField;
    location    "4e-07";
    object      rhoU_dof0;
}
// * * * * * * * * * * * * * * * * * * * * * * * * * * * * * * * * * * * * * //

dimensions      [0 0 0 0 0 0 0];

internalField   nonuniform List<vector> 
84
(
(0.0741262 1.19653e-05 1.24521e-20)
(0.0721962 1.18757e-05 -1.36465e-20)
(0.0722058 1.20529e-05 -3.26245e-20)
(0.0722059 1.22344e-05 1.595e-20)
(0.0722059 1.24214e-05 3.06592e-22)
(0.072206 1.26143e-05 1.68114e-21)
(0.0722061 1.28133e-05 2.95552e-20)
(0.072236 1.28167e-05 6.50644e-21)
(0.0744007 -1.19052e-05 1.08962e-20)
(0.0724691 -1.18763e-05 -1.2285e-20)
(0.0724829 -1.20537e-05 -3.83675e-20)
(0.0724871 -1.22358e-05 5.94779e-22)
(0.0724915 -1.24235e-05 -6.3582e-20)
(0.072496 -1.2617e-05 6.52546e-21)
(0.0725006 -1.28167e-05 5.46725e-20)
(0.0725306 -1.28192e-05 1.34708e-20)
(0.0743716 -1.18382e-05 -5.81107e-20)
(0.0724421 -1.19034e-05 9.78435e-21)
(0.0724548 -1.2051e-05 1.92699e-20)
(0.0724586 -1.22331e-05 -3.07765e-22)
(0.0724625 -1.24207e-05 -2.25546e-22)
(0.0724666 -1.26142e-05 2.72512e-20)
(0.0724707 -1.28138e-05 -2.04538e-20)
(0.0725007 -1.28162e-05 -2.69695e-20)
(0.0743476 -1.20177e-05 -5.83824e-20)
(0.072417 -1.2048e-05 2.64878e-20)
(0.07243 -1.22304e-05 -3.34578e-22)
(0.0724335 -1.24179e-05 -6.13552e-20)
(0.0724371 -1.26113e-05 5.3715e-20)
(0.0724408 -1.28108e-05 1.46089e-20)
(0.0724708 -1.28133e-05 -2.08373e-20)
(0.0743207 -1.20722e-05 -3.25526e-20)
(0.0723889 -1.20449e-05 -1.38277e-20)
(0.0724015 -1.22274e-05 6.83572e-23)
(0.0724046 -1.24148e-05 1.02049e-23)
(0.0724077 -1.26081e-05 -1.71275e-20)
(0.072411 -1.28075e-05 1.6224e-20)
(0.0724409 -1.281e-05 4.12527e-20)
(0.0742924 -1.14434e-05 -2.03396e-20)
(0.0723608 -1.14139e-05 3.18314e-20)
(0.072373 -1.15869e-05 -1.58204e-22)
(0.0723756 -1.17646e-05 3.98094e-20)
(0.0723783 -1.19479e-05 -3.48404e-20)
(0.0723811 -1.21369e-05 2.80409e-20)
(0.072411 -1.21393e-05 -6.33637e-20)
(0.0742641 -9.2344e-06 -4.90257e-25)
(0.0723326 -9.20378e-06 3.16198e-20)
(0.0723443 -9.3433e-06 -1.62014e-22)
(0.0723465 -9.48657e-06 -1.031e-22)
(0.0723487 -9.6343e-06 3.47557e-20)
(0.072351 -9.78671e-06 5.58882e-21)
(0.072381 -9.78876e-06 3.54704e-20)
(0.0742351 -7.73183e-06 -6.17653e-23)
(0.0723048 -7.77471e-06 -1.91594e-23)
(0.0723158 -7.86887e-06 -1.01774e-22)
(0.0723175 -7.98961e-06 -3.85931e-23)
(0.0723193 -8.11406e-06 2.57942e-23)
(0.0723212 -8.24245e-06 -2.57874e-23)
(0.0723511 -8.2443e-06 -2.51273e-20)
(0.0742086 -7.16668e-06 6.54619e-20)
(0.0722777 -7.16445e-06 -3.30289e-22)
(0.0722886 -7.27473e-06 -6.5389e-20)
(0.07229 -7.38802e-06 -2.84408e-20)
(0.0722914 -7.5049e-06 3.24072e-20)
(0.0723213 -7.50668e-06 -1.8398e-23)
(0.074181 -7.26196e-06 -2.75556e-20)
(0.0722495 -7.22254e-06 1.35474e-22)
(0.07226 -7.3335e-06 -3.27448e-20)
(0.0722609 -7.44738e-06 3.33788e-20)
(0.0722618 -7.56485e-06 6.14165e-20)
(0.0722917 -7.56671e-06 6.0418e-25)
(0.0741522 -8.11468e-06 -3.31962e-20)
(0.0722211 -8.08745e-06 1.62716e-22)
(0.0722312 -8.21172e-06 1.02012e-23)
(0.0722316 -8.3393e-06 6.20434e-20)
(0.0722321 -8.47091e-06 6.86121e-20)
(0.072262 -8.47299e-06 8.83788e-21)
(0.0740953 -7.1741e-08 -1.55695e-22)
(0.0721931 -9.6395e-06 3.39623e-25)
(0.0722023 -9.71879e-06 -2.78129e-28)
(0.0722023 -9.86763e-06 3.98068e-20)
(0.0722023 -1.00209e-05 -2.1105e-22)
(0.0722023 -1.0179e-05 5.04444e-25)
(0.0722322 -1.01817e-05 -3.09354e-20)
)
;

boundaryField
{
    inlet
    {
        type            calculated;
        value           nonuniform List<vector> 0();
    }
    outlet2
    {
        type            calculated;
        value           uniform (0.0741049 0 0);
    }
    outlet1
    {
        type            calculated;
        value           uniform (0.0741049 0 0);
    }
    wall
    {
        type            calculated;
        value           uniform (0.0741049 0 0);
    }
    symmetryBottom
    {
        type            symmetry;
    }
    symmetryZ0
    {
        type            symmetry;
    }
    symmetryZ05
    {
        type            symmetry;
    }
    procBoundary0to1
    {
        type            processor;
        value           uniform (0.0741049 0 0);
    }
}


// ************************************************************************* //
