/*--------------------------------*- C++ -*----------------------------------*\
| =========                 |                                                 |
| \\      /  F ield         | OpenFOAM: The Open Source CFD Toolbox           |
|  \\    /   O peration     | Version:  2412                                  |
|   \\  /    A nd           | Website:  www.openfoam.com                      |
|    \\/     M anipulation  |                                                 |
\*---------------------------------------------------------------------------*/
FoamFile
{
    version     2.0;
    format      ascii;
    arch        "LSB;label=32;scalar=64";
    class       volVectorField;
    location    "4e-07";
    object      U;
}
// * * * * * * * * * * * * * * * * * * * * * * * * * * * * * * * * * * * * * //

dimensions      [0 0 0 0 0 0 0];

internalField   nonuniform List<vector> 
84
(
(2636.31 0.42555 4.42862e-16)
(2635.9 0.433584 -4.98235e-16)
(2635.9 0.439994 -1.19097e-15)
(2635.9 0.446619 5.82259e-16)
(2635.9 0.453448 1.11922e-17)
(2635.89 0.460488 6.13705e-17)
(2635.89 0.46775 1.07892e-15)
(2635.9 0.467685 2.37421e-16)
(2636.45 -0.421869 3.86115e-16)
(2636.03 -0.431995 -4.46862e-16)
(2636.04 -0.438364 -1.39534e-15)
(2636.04 -0.444962 2.16295e-17)
(2636.04 -0.451761 -2.31206e-15)
(2636.04 -0.458771 2.37274e-16)
(2636.04 -0.466002 1.98783e-15)
(2636.05 -0.4659 4.89583e-16)
(2636.44 -0.419658 -2.06e-15)
(2636.03 -0.433141 3.56034e-16)
(2636.03 -0.438436 7.01072e-16)
(2636.03 -0.445038 -1.11965e-17)
(2636.03 -0.451839 -8.2049e-18)
(2636.04 -0.458852 9.91289e-16)
(2636.04 -0.466086 -7.43981e-16)
(2636.04 -0.465984 -9.80581e-16)
(2636.44 -0.426158 -2.07029e-15)
(2636.02 -0.438553 9.64173e-16)
(2636.03 -0.445114 -1.21767e-17)
(2636.03 -0.451918 -2.23286e-15)
(2636.03 -0.458933 1.95472e-15)
(2636.03 -0.466169 5.31598e-16)
(2636.04 -0.466067 -7.5793e-16)
(2636.43 -0.428247 -1.15476e-15)
(2636.02 -0.43861 -5.03531e-16)
(2636.02 -0.445178 2.48877e-18)
(2636.02 -0.451984 3.71528e-19)
(2636.02 -0.459001 -6.2353e-16)
(2636.02 -0.46624 5.90613e-16)
(2636.03 -0.466138 1.50113e-15)
(2636.42 -0.406095 -7.21792e-16)
(2636.01 -0.415795 1.15958e-15)
(2636.01 -0.422026 -5.76219e-18)
(2636.01 -0.428483 1.44991e-15)
(2636.01 -0.435141 -1.26888e-15)
(2636.01 -0.442008 1.02121e-15)
(2636.02 -0.441914 -2.30667e-15)
(2636.41 -0.327826 -1.74044e-20)
(2636 -0.335411 1.15231e-15)
(2636 -0.34044 -5.90329e-18)
(2636 -0.345651 -3.75655e-18)
(2636 -0.351022 1.26631e-15)
(2636 -0.356564 2.0362e-16)
(2636.01 -0.356492 1.29178e-15)
(2636.4 -0.27459 -2.19355e-18)
(2635.99 -0.283439 -6.98485e-19)
(2635.99 -0.286829 -3.70979e-18)
(2635.99 -0.291223 -1.40673e-18)
(2635.99 -0.295752 9.40182e-19)
(2635.99 -0.300424 -9.39911e-19)
(2636 -0.300368 -9.15474e-16)
(2636.4 -0.254609 2.32565e-15)
(2635.98 -0.261289 -1.20457e-17)
(2635.99 -0.265271 -2.38439e-15)
(2635.99 -0.269397 -1.03707e-15)
(2635.99 -0.273654 1.18168e-15)
(2635.99 -0.273606 -6.70575e-19)
(2636.39 -0.25809 -9.79328e-16)
(2635.98 -0.26351 4.94268e-18)
(2635.98 -0.26752 -1.1945e-15)
(2635.98 -0.271671 1.21762e-15)
(2635.98 -0.275953 2.24037e-15)
(2635.99 -0.275907 2.20304e-20)
(2636.39 -0.288508 -1.18025e-15)
(2635.98 -0.295181 5.93893e-18)
(2635.98 -0.299676 3.72278e-19)
(2635.98 -0.30433 2.26418e-15)
(2635.98 -0.309131 2.50388e-15)
(2635.99 -0.30908 3.2239e-16)
(2636.38 -0.00255262 -5.53978e-18)
(2635.97 -0.351965 1.24006e-20)
(2635.98 -0.354816 -1.0154e-23)
(2635.98 -0.36025 1.45328e-15)
(2635.98 -0.365845 -7.70507e-18)
(2635.98 -0.371618 1.84164e-20)
(2635.98 -0.371564 -1.12893e-15)
)
;

boundaryField
{
    inlet
    {
        type            calculated;
        value           nonuniform List<vector> 0();
    }
    outlet2
    {
        type            calculated;
        value           uniform (0 0 0);
    }
    outlet1
    {
        type            calculated;
        value           uniform (0 0 0);
    }
    wall
    {
        type            calculated;
        value           uniform (0 0 0);
    }
    symmetryBottom
    {
        type            symmetry;
    }
    symmetryZ0
    {
        type            symmetry;
    }
    symmetryZ05
    {
        type            symmetry;
    }
    procBoundary0to1
    {
        type            processor;
        value           uniform (0 0 0);
    }
}


// ************************************************************************* //
