/*--------------------------------*- C++ -*----------------------------------*\
| =========                 |                                                 |
| \\      /  F ield         | OpenFOAM: The Open Source CFD Toolbox           |
|  \\    /   O peration     | Version:  2412                                  |
|   \\  /    A nd           | Website:  www.openfoam.com                      |
|    \\/     M anipulation  |                                                 |
\*---------------------------------------------------------------------------*/
FoamFile
{
    version     2.0;
    format      ascii;
    arch        "LSB;label=32;scalar=64";
    class       volScalarField;
    location    "9.6e-06";
    object      E;
}
// * * * * * * * * * * * * * * * * * * * * * * * * * * * * * * * * * * * * * //

dimensions      [0 0 0 0 0 0 0];

internalField   nonuniform List<scalar> 
84
(
120.113
5.23321
15.8046
120.156
5.32477
15.0772
120.184
5.31683
15.1705
120.185
5.30578
15.2653
120.186
5.29475
15.36
120.187
5.28378
15.4541
120.188
5.27285
15.5477
120.189
5.26197
15.6407
120.19
5.25113
15.7332
120.191
5.24035
15.8251
120.192
5.22957
15.9165
120.194
5.2187
16.0072
57.8053
54
51.0385
62.0999
57.8684
54.6836
61.6122
57.4275
54.3277
61.0591
56.7547
57.6613
48.1727
60.5038
56.2784
56.7308
53.2978
59.9541
55.786
56.2172
52.8979
59.4091
55.2974
55.7154
52.4296
58.8689
54.8131
55.2169
51.99
58.3333
54.3377
54.575
54.9305
48.9818
57.8025
53.8614
54.0978
54.2458
51.04
57.2763
53.3895
53.6159
53.7483
50.6519
56.7551
52.918
53.2692
50.2195
)
;

boundaryField
{
    inlet
    {
        type            calculated;
        value           uniform 0;
    }
    outlet2
    {
        type            calculated;
        value           uniform 0;
    }
    outlet1
    {
        type            calculated;
        value           nonuniform List<scalar> 0();
    }
    wall
    {
        type            calculated;
        value           uniform 0;
    }
    symmetryBottom
    {
        type            symmetry;
    }
    symmetryZ0
    {
        type            symmetry;
    }
    symmetryZ05
    {
        type            symmetry;
    }
    procBoundary1to0
    {
        type            processor;
        value           uniform 0;
    }
}


// ************************************************************************* //
