/*--------------------------------*- C++ -*----------------------------------*\
| =========                 |                                                 |
| \\      /  F ield         | OpenFOAM: The Open Source CFD Toolbox           |
|  \\    /   O peration     | Version:  2412                                  |
|   \\  /    A nd           | Website:  www.openfoam.com                      |
|    \\/     M anipulation  |                                                 |
\*---------------------------------------------------------------------------*/
FoamFile
{
    version     2.0;
    format      ascii;
    arch        "LSB;label=32;scalar=64";
    class       volVectorField;
    location    "9.6e-06";
    object      rhoU_dof0;
}
// * * * * * * * * * * * * * * * * * * * * * * * * * * * * * * * * * * * * * //

dimensions      [0 0 0 0 0 0 0];

internalField   nonuniform List<vector> 
84
(
(0.0893691 2.01396e-07 -4.03243e-21)
(0.00414439 -4.62234e-07 2.64085e-20)
(0.0119408 1.79486e-07 -1.2259e-19)
(0.0894012 -0.000272759 -4.26735e-21)
(0.00421209 -2.34242e-05 2.78298e-20)
(0.0114016 -4.35947e-05 -1.28437e-19)
(0.0894212 -0.00027282 5.60676e-21)
(0.00420634 -2.34612e-05 -3.64951e-20)
(0.0114706 -4.33401e-05 1.67442e-19)
(0.089422 -0.000272832 -7.322e-21)
(0.00419822 -2.34344e-05 4.77025e-20)
(0.0115407 -4.3584e-05 -2.21083e-19)
(0.0894228 -0.000272835 -1.29883e-20)
(0.00419011 -2.34061e-05 8.38294e-20)
(0.0116107 -4.38333e-05 -3.79584e-19)
(0.0894236 -0.000272838 7.11397e-21)
(0.00418205 -2.33779e-05 -4.59984e-20)
(0.0116802 -4.40796e-05 2.10317e-19)
(0.0894244 -0.000272841 -9.53807e-21)
(0.00417401 -2.33498e-05 6.19935e-20)
(0.0117493 -4.43245e-05 -2.83932e-19)
(0.0894252 -0.000272843 -1.10688e-20)
(0.00416602 -2.33219e-05 7.19146e-20)
(0.0118181 -4.4568e-05 -3.31587e-19)
(0.089426 -0.000272846 4.11615e-21)
(0.00415805 -2.32941e-05 -2.66324e-20)
(0.0118864 -4.48102e-05 1.21294e-19)
(0.0894268 -0.000272849 -9.42881e-21)
(0.00415012 -2.32664e-05 6.19586e-20)
(0.0119544 -4.50509e-05 -2.8913e-19)
(0.0894276 -0.000272852 -2.44131e-20)
(0.0041422 -2.32386e-05 1.59568e-19)
(0.0120219 -4.52902e-05 -7.3814e-19)
(0.0894289 -0.000273098 9.13484e-24)
(0.00413421 -2.28081e-05 -1.67175e-22)
(0.012089 -4.5226e-05 2.38298e-21)
(0.0431958 -3.25515e-06 -2.55825e-21)
(0.0403825 -3.07164e-06 1.9662e-19)
(0.0382005 -2.9411e-06 -2.8526e-20)
(0.046392 -0.000169349 -2.01403e-21)
(0.0432637 -0.000160965 1.98913e-19)
(0.0409173 -0.000151579 -3.2983e-20)
(0.0460296 -0.00017121 -1.17198e-20)
(0.0429359 -0.000162586 -6.83964e-20)
(0.0406518 -0.000155366 -2.76076e-19)
(0.0456188 -0.000169788 2.29024e-20)
(0.0424375 -0.000159957 -3.76644e-21)
(0.0431053 -0.000179683 -3.00956e-20)
(0.0360819 5.2251e-05 3.90099e-19)
(0.0452063 -0.000168264 -5.17658e-20)
(0.0420832 -0.000159306 2.34461e-21)
(0.0424157 -0.000163412 -2.90029e-20)
(0.0398867 -0.000148955 3.4183e-19)
(0.044798 -0.000166777 -7.29951e-21)
(0.0417171 -0.000157969 -1.95902e-19)
(0.042034 -0.000161614 -7.46863e-21)
(0.0395887 -0.000151506 2.3205e-19)
(0.0443932 -0.000165304 2.89795e-20)
(0.0413539 -0.000156623 -4.05184e-21)
(0.041661 -0.000160206 -1.66831e-21)
(0.0392403 -0.000150254 -7.36845e-23)
(0.043992 -0.000163843 5.12703e-20)
(0.0409938 -0.000155291 -2.13924e-19)
(0.0412904 -0.00015873 2.07384e-19)
(0.0389129 -0.000150791 1.11719e-21)
(0.0435941 -0.000162393 1.04049e-20)
(0.0406402 -0.000154014 -2.65553e-19)
(0.0408148 -0.000156094 -2.80528e-19)
(0.0410766 -0.000174624 1.62646e-19)
(0.0366788 5.10727e-05 1.83196e-18)
(0.0431998 -0.000160958 5.38088e-20)
(0.040286 -0.000152676 -2.99626e-19)
(0.0404599 -0.000155449 1.81386e-19)
(0.0405684 -0.000158504 4.36341e-19)
(0.0382063 -0.000146939 3.00894e-19)
(0.0428088 -0.000159534 7.84662e-20)
(0.0399351 -0.000151372 -4.99407e-21)
(0.0401016 -0.000154172 -2.2414e-24)
(0.0401986 -0.000155557 2.05923e-20)
(0.037917 -0.000164539 -2.40176e-19)
(0.0424216 -0.000158096 -2.29505e-20)
(0.0395845 -0.000150009 2.90637e-19)
(0.0398423 -0.000152355 1.40795e-20)
(0.037595 -0.00016355 -4.70041e-19)
)
;

boundaryField
{
    inlet
    {
        type            calculated;
        value           uniform (0.0741049 0 0);
    }
    outlet2
    {
        type            calculated;
        value           uniform (0.0741049 0 0);
    }
    outlet1
    {
        type            calculated;
        value           nonuniform List<vector> 0();
    }
    wall
    {
        type            calculated;
        value           uniform (0.0741049 0 0);
    }
    symmetryBottom
    {
        type            symmetry;
    }
    symmetryZ0
    {
        type            symmetry;
    }
    symmetryZ05
    {
        type            symmetry;
    }
    procBoundary1to0
    {
        type            processor;
        value           uniform (0.0741049 0 0);
    }
}


// ************************************************************************* //
