/*--------------------------------*- C++ -*----------------------------------*\
| =========                 |                                                 |
| \\      /  F ield         | OpenFOAM: The Open Source CFD Toolbox           |
|  \\    /   O peration     | Version:  2412                                  |
|   \\  /    A nd           | Website:  www.openfoam.com                      |
|    \\/     M anipulation  |                                                 |
\*---------------------------------------------------------------------------*/
FoamFile
{
    version     2.0;
    format      ascii;
    arch        "LSB;label=32;scalar=64";
    class       volVectorField;
    location    "9.6e-06";
    object      U;
}
// * * * * * * * * * * * * * * * * * * * * * * * * * * * * * * * * * * * * * //

dimensions      [0 0 0 0 0 0 0];

internalField   nonuniform List<vector> 
84
(
(2640.96 0.00595149 -1.19163e-16)
(2483.86 -0.27703 1.58274e-14)
(2600.04 0.0390819 -2.66933e-14)
(2640.95 -8.05743 -1.2606e-16)
(2486.6 -13.8284 1.64293e-14)
(2597.1 -9.93014 -2.92557e-14)
(2640.95 -8.05744 1.65589e-16)
(2486.3 -13.8676 -2.15717e-14)
(2597.45 -9.81407 3.79161e-14)
(2640.96 -8.05772 -2.16245e-16)
(2485.96 -13.8766 2.82469e-14)
(2597.82 -9.81078 -4.97658e-14)
(2640.96 -8.05773 -3.83588e-16)
(2485.62 -13.8847 4.97285e-14)
(2598.18 -9.80881 -8.49416e-14)
(2640.96 -8.05774 2.10097e-16)
(2485.28 -13.8929 -2.73357e-14)
(2598.54 -9.80658 4.67901e-14)
(2640.96 -8.05775 -2.81686e-16)
(2484.94 -13.901 3.6907e-14)
(2598.9 -9.80437 -6.28043e-14)
(2640.96 -8.05776 -3.26891e-16)
(2484.6 -13.9091 4.28897e-14)
(2599.24 -9.8022 -7.29286e-14)
(2640.96 -8.05777 1.21559e-16)
(2484.27 -13.9173 -1.59118e-14)
(2599.59 -9.80009 2.65272e-14)
(2640.96 -8.05778 -2.78452e-16)
(2483.93 -13.9254 3.70834e-14)
(2599.92 -9.79799 -6.2882e-14)
(2640.96 -8.0578 -7.20961e-16)
(2483.59 -13.9335 9.56742e-14)
(2600.25 -9.79593 -1.59654e-13)
(2640.96 -8.06495 2.69764e-19)
(2483.25 -13.6999 -1.00415e-16)
(2600.57 -9.72897 5.12624e-16)
(2628.29 -0.198063 -1.5566e-16)
(2626.29 -0.199765 1.27872e-14)
(2623.99 -0.202024 -1.95945e-15)
(2629.9 -9.60018 -1.14173e-16)
(2627.84 -9.77701 1.2082e-14)
(2625.55 -9.7264 -2.11643e-15)
(2629.78 -9.78163 -6.69578e-16)
(2627.72 -9.95044 -4.18594e-15)
(2625.5 -10.0343 -1.78304e-14)
(2629.64 -9.78721 1.32018e-15)
(2627.42 -9.90338 -2.33191e-16)
(2628.05 -10.955 -1.83488e-15)
(2622.88 3.79825 2.83572e-14)
(2629.49 -9.78731 -3.01103e-15)
(2627.3 -9.94567 1.46377e-16)
(2627.67 -10.1235 -1.79674e-15)
(2625.14 -9.80345 2.24975e-14)
(2629.35 -9.78871 -4.28433e-16)
(2627.17 -9.94822 -1.2337e-14)
(2627.52 -10.1024 -4.6686e-16)
(2625.03 -10.046 1.53867e-14)
(2629.2 -9.79015 1.71632e-15)
(2627.03 -9.94957 -2.57395e-16)
(2627.38 -10.1035 -1.05213e-16)
(2624.89 -10.0509 -4.92896e-18)
(2629.05 -9.79159 3.06402e-15)
(2626.89 -9.95108 -1.37083e-14)
(2627.24 -10.0997 1.31955e-14)
(2624.78 -10.1713 7.53572e-17)
(2628.9 -9.79297 6.27457e-16)
(2626.76 -9.95459 -1.71639e-14)
(2626.95 -10.0466 -1.80555e-14)
(2627.21 -11.1688 1.04027e-14)
(2623.54 3.6531 1.31036e-13)
(2628.75 -9.79445 3.27433e-15)
(2626.62 -9.95435 -1.95354e-14)
(2626.81 -10.0924 1.17763e-14)
(2626.95 -10.2637 2.82546e-14)
(2624.47 -10.0935 2.0669e-14)
(2628.61 -9.7959 4.81809e-15)
(2626.48 -9.95554 -3.28454e-16)
(2626.67 -10.0984 -1.46813e-19)
(2626.8 -10.165 1.34562e-15)
(2624.38 -11.3884 -1.66235e-14)
(2628.46 -9.7957 -1.42202e-15)
(2626.34 -9.95274 1.92831e-14)
(2626.67 -10.0443 9.28217e-16)
(2624.25 -11.4163 -3.28104e-14)
)
;

boundaryField
{
    inlet
    {
        type            calculated;
        value           uniform (0 0 0);
    }
    outlet2
    {
        type            calculated;
        value           uniform (0 0 0);
    }
    outlet1
    {
        type            calculated;
        value           nonuniform List<vector> 0();
    }
    wall
    {
        type            calculated;
        value           uniform (0 0 0);
    }
    symmetryBottom
    {
        type            symmetry;
    }
    symmetryZ0
    {
        type            symmetry;
    }
    symmetryZ05
    {
        type            symmetry;
    }
    procBoundary1to0
    {
        type            processor;
        value           uniform (0 0 0);
    }
}


// ************************************************************************* //
