/*--------------------------------*- C++ -*----------------------------------*\
| =========                 |                                                 |
| \\      /  F ield         | OpenFOAM: The Open Source CFD Toolbox           |
|  \\    /   O peration     | Version:  2412                                  |
|   \\  /    A nd           | Website:  www.openfoam.com                      |
|    \\/     M anipulation  |                                                 |
\*---------------------------------------------------------------------------*/
FoamFile
{
    version     2.0;
    format      ascii;
    arch        "LSB;label=32;scalar=64";
    class       volScalarField;
    location    "6.4e-06";
    object      rho_dof0;
}
// * * * * * * * * * * * * * * * * * * * * * * * * * * * * * * * * * * * * * //

dimensions      [0 0 0 0 0 0 0];

internalField   nonuniform List<scalar> 
84
(
2.73594e-05
1.77137e-05
1.87153e-05
1.86481e-05
1.8653e-05
1.86543e-05
1.86558e-05
1.87913e-05
2.89682e-05
1.87809e-05
1.98556e-05
1.98022e-05
1.98251e-05
1.98449e-05
1.98656e-05
2.00077e-05
2.86531e-05
1.8807e-05
1.97155e-05
1.96801e-05
1.96996e-05
1.97174e-05
1.97359e-05
1.98773e-05
2.85307e-05
1.85735e-05
1.96273e-05
1.95713e-05
1.95908e-05
1.9607e-05
1.97478e-05
2.84791e-05
1.84505e-05
1.95052e-05
1.94472e-05
1.94646e-05
1.94788e-05
1.96189e-05
2.83068e-05
1.8336e-05
1.93826e-05
1.93231e-05
1.93385e-05
1.93505e-05
1.94899e-05
2.81339e-05
1.82227e-05
1.92604e-05
1.91994e-05
1.92128e-05
1.92227e-05
1.93614e-05
2.7889e-05
1.8189e-05
1.91307e-05
1.90791e-05
1.90897e-05
1.90977e-05
1.92357e-05
2.77307e-05
1.80023e-05
1.90195e-05
1.89558e-05
1.89651e-05
1.91023e-05
2.76444e-05
1.78956e-05
1.89116e-05
1.88464e-05
1.88543e-05
1.89908e-05
2.7432e-05
1.77841e-05
1.87862e-05
1.87198e-05
1.87254e-05
1.88613e-05
2.71124e-05
1.77133e-05
1.86642e-05
1.86013e-05
1.86047e-05
1.86049e-05
1.87403e-05
)
;

boundaryField
{
    inlet
    {
        type            calculated;
        value           nonuniform List<scalar> 0();
    }
    outlet2
    {
        type            calculated;
        value           uniform 2.81085e-05;
    }
    outlet1
    {
        type            calculated;
        value           uniform 2.81085e-05;
    }
    wall
    {
        type            calculated;
        value           uniform 2.81085e-05;
    }
    symmetryBottom
    {
        type            symmetry;
    }
    symmetryZ0
    {
        type            symmetry;
    }
    symmetryZ05
    {
        type            symmetry;
    }
    procBoundary0to1
    {
        type            processor;
        value           uniform 2.81085e-05;
    }
}


// ************************************************************************* //
