/*--------------------------------*- C++ -*----------------------------------*\
| =========                 |                                                 |
| \\      /  F ield         | OpenFOAM: The Open Source CFD Toolbox           |
|  \\    /   O peration     | Version:  2412                                  |
|   \\  /    A nd           | Website:  www.openfoam.com                      |
|    \\/     M anipulation  |                                                 |
\*---------------------------------------------------------------------------*/
FoamFile
{
    version     2.0;
    format      ascii;
    arch        "LSB;label=32;scalar=64";
    class       volScalarField;
    location    "6.4e-06";
    object      T;
}
// * * * * * * * * * * * * * * * * * * * * * * * * * * * * * * * * * * * * * //

dimensions      [0 0 0 0 0 0 0];

internalField   nonuniform List<scalar> 
84
(
203.889
203.938
204.062
204.114
204.178
204.244
204.311
204.304
199.976
199.941
200.007
199.996
199.997
199.997
199.997
199.998
199.953
199.942
200.005
199.997
199.997
199.997
199.997
199.998
199.984
199.937
200.007
199.996
199.997
199.997
199.998
199.983
199.942
200.013
200.002
200.003
200.003
200.004
200.525
200.527
200.593
200.588
200.593
200.598
200.597
203.454
203.558
203.658
203.705
203.762
203.821
203.813
206.035
206.521
206.534
206.644
206.749
206.859
206.845
216.649
219.214
219.292
219.651
220.012
219.961
192.99
192.819
192.784
192.654
192.533
192.547
198.198
198.256
198.277
198.239
198.21
198.214
199.819
199.189
199.295
199.271
199.26
199.247
199.25
)
;

boundaryField
{
    inlet
    {
        type            calculated;
        value           nonuniform List<scalar> 0();
    }
    outlet2
    {
        type            calculated;
        value           uniform 0;
    }
    outlet1
    {
        type            calculated;
        value           uniform 0;
    }
    wall
    {
        type            calculated;
        value           uniform 0;
    }
    symmetryBottom
    {
        type            symmetry;
    }
    symmetryZ0
    {
        type            symmetry;
    }
    symmetryZ05
    {
        type            symmetry;
    }
    procBoundary0to1
    {
        type            processor;
        value           uniform 0;
    }
}


// ************************************************************************* //
