/*--------------------------------*- C++ -*----------------------------------*\
| =========                 |                                                 |
| \\      /  F ield         | OpenFOAM: The Open Source CFD Toolbox           |
|  \\    /   O peration     | Version:  2412                                  |
|   \\  /    A nd           | Website:  www.openfoam.com                      |
|    \\/     M anipulation  |                                                 |
\*---------------------------------------------------------------------------*/
FoamFile
{
    version     2.0;
    format      ascii;
    arch        "LSB;label=32;scalar=64";
    class       volScalarField;
    location    "8.5e-06";
    object      rho;
}
// * * * * * * * * * * * * * * * * * * * * * * * * * * * * * * * * * * * * * //

dimensions      [0 0 0 0 0 0 0];

internalField   nonuniform List<scalar> 
84
(
2.87879e-05
1.56619e-05
1.65501e-05
1.65147e-05
1.65208e-05
1.65262e-05
1.6519e-05
1.67008e-05
3.06332e-05
1.6689e-05
1.7649e-05
1.76283e-05
1.76521e-05
1.76757e-05
1.76881e-05
1.7879e-05
3.0269e-05
1.66947e-05
1.75128e-05
1.75019e-05
1.75233e-05
1.75451e-05
1.75555e-05
1.77453e-05
2.99693e-05
1.64699e-05
1.7398e-05
1.7375e-05
1.73958e-05
1.74035e-05
1.75921e-05
2.99733e-05
1.63191e-05
1.72549e-05
1.72291e-05
1.72474e-05
1.72525e-05
1.74401e-05
2.97372e-05
1.61857e-05
1.71122e-05
1.70844e-05
1.71004e-05
1.71029e-05
1.72893e-05
2.94996e-05
1.6054e-05
1.69706e-05
1.69409e-05
1.69546e-05
1.69546e-05
1.71398e-05
2.91961e-05
1.59783e-05
1.68254e-05
1.67989e-05
1.68099e-05
1.68075e-05
1.69916e-05
2.89349e-05
1.58059e-05
1.66976e-05
1.66652e-05
1.66617e-05
1.68447e-05
2.88097e-05
1.56675e-05
1.65577e-05
1.65231e-05
1.65172e-05
1.6699e-05
2.85626e-05
1.55389e-05
1.64185e-05
1.63821e-05
1.63738e-05
1.65546e-05
2.80964e-05
1.54401e-05
1.62781e-05
1.62414e-05
1.62438e-05
1.62318e-05
1.64115e-05
)
;

boundaryField
{
    inlet
    {
        type            calculated;
        value           nonuniform List<scalar> 0();
    }
    outlet2
    {
        type            calculated;
        value           uniform 0;
    }
    outlet1
    {
        type            calculated;
        value           uniform 0;
    }
    wall
    {
        type            calculated;
        value           uniform 0;
    }
    symmetryBottom
    {
        type            symmetry;
    }
    symmetryZ0
    {
        type            symmetry;
    }
    symmetryZ05
    {
        type            symmetry;
    }
    procBoundary0to1
    {
        type            processor;
        value           uniform 0;
    }
}


// ************************************************************************* //
