/*--------------------------------*- C++ -*----------------------------------*\
| =========                 |                                                 |
| \\      /  F ield         | OpenFOAM: The Open Source CFD Toolbox           |
|  \\    /   O peration     | Version:  2412                                  |
|   \\  /    A nd           | Website:  www.openfoam.com                      |
|    \\/     M anipulation  |                                                 |
\*---------------------------------------------------------------------------*/
FoamFile
{
    version     2.0;
    format      ascii;
    arch        "LSB;label=32;scalar=64";
    class       volScalarField;
    location    "6.5e-06";
    object      E;
}
// * * * * * * * * * * * * * * * * * * * * * * * * * * * * * * * * * * * * * //

dimensions      [0 0 0 0 0 0 0];

internalField   nonuniform List<scalar> 
84
(
96.5741
61.7187
65.4375
65.1803
65.1984
65.2024
65.2072
65.6956
102.471
65.5852
69.5818
69.3732
69.4572
69.5284
69.6027
70.1158
101.315
65.6982
69.0732
68.9341
69.0052
69.0693
69.1358
69.6464
100.872
64.8424
68.7597
68.5423
68.6136
68.6719
69.18
100.694
64.3992
68.3201
68.0956
68.1596
68.2103
68.7159
100.071
63.9899
67.8808
67.6508
67.7074
67.7506
68.2537
99.4603
63.5926
67.4511
67.2162
67.2656
67.3015
67.8021
98.5862
63.4932
66.9954
66.7968
66.8363
66.8654
67.3636
98.096
62.8767
66.6641
66.4206
66.4572
66.9526
97.5938
62.3698
66.1405
65.8902
65.9188
66.4109
96.8711
61.999
65.7204
65.4664
65.4877
65.9775
95.7307
61.7541
65.2892
65.0483
65.0617
65.0623
65.5504
)
;

boundaryField
{
    inlet
    {
        type            calculated;
        value           nonuniform List<scalar> 0();
    }
    outlet2
    {
        type            calculated;
        value           uniform 0;
    }
    outlet1
    {
        type            calculated;
        value           uniform 0;
    }
    wall
    {
        type            calculated;
        value           uniform 0;
    }
    symmetryBottom
    {
        type            symmetry;
    }
    symmetryZ0
    {
        type            symmetry;
    }
    symmetryZ05
    {
        type            symmetry;
    }
    procBoundary0to1
    {
        type            processor;
        value           uniform 0;
    }
}


// ************************************************************************* //
