/*--------------------------------*- C++ -*----------------------------------*\
| =========                 |                                                 |
| \\      /  F ield         | OpenFOAM: The Open Source CFD Toolbox           |
|  \\    /   O peration     | Version:  2412                                  |
|   \\  /    A nd           | Website:  www.openfoam.com                      |
|    \\/     M anipulation  |                                                 |
\*---------------------------------------------------------------------------*/
FoamFile
{
    version     2.0;
    format      ascii;
    arch        "LSB;label=32;scalar=64";
    class       volVectorField;
    location    "6.5e-06";
    object      rhoU;
}
// * * * * * * * * * * * * * * * * * * * * * * * * * * * * * * * * * * * * * //

dimensions      [0 0 0 0 0 0 0];

internalField   nonuniform List<vector> 
84
(
(0.0720078 0.000181452 1.82845e-19)
(0.0461478 0.000118816 -1.76852e-19)
(0.0488912 0.000127445 -2.96682e-19)
(0.0487027 0.000128805 1.94776e-19)
(0.048716 0.000130725 -2.84811e-20)
(0.048719 0.000132674 2.46564e-20)
(0.0487227 0.000134684 2.85166e-19)
(0.0490853 0.000135452 3.28539e-20)
(0.0763711 -0.000197788 1.8412e-19)
(0.0490149 -0.000131732 -1.75475e-19)
(0.0519626 -0.000140671 -3.87814e-19)
(0.0518102 -0.000142479 5.12324e-20)
(0.0518723 -0.000144821 -7.28537e-19)
(0.0519253 -0.000147217 1.8082e-19)
(0.0519804 -0.000149694 5.93712e-19)
(0.0523612 -0.000150494 1.15005e-19)
(0.0755159 -0.000176455 -7.34327e-19)
(0.0490958 -0.000149479 1.47371e-19)
(0.0515856 -0.0001374 2.16963e-19)
(0.0514841 -0.000141787 -2.84489e-20)
(0.0515367 -0.000143909 -1.0807e-20)
(0.0515843 -0.000146286 2.83073e-19)
(0.0516337 -0.000148732 -2.46164e-19)
(0.0520126 -0.000149528 -2.70607e-19)
(0.0751877 -0.000183131 -7.02207e-19)
(0.0484627 -0.000132951 3.30159e-19)
(0.0513521 -0.000141169 -3.93378e-20)
(0.0511932 -0.000142999 -6.56037e-19)
(0.051246 -0.000145361 6.60245e-19)
(0.0512893 -0.000147777 1.03248e-19)
(0.0516663 -0.000148569 -2.46837e-19)
(0.075054 -0.000197756 -4.35179e-19)
(0.0481336 -0.000131084 -1.1272e-19)
(0.0510257 -0.000140406 1.36674e-20)
(0.0508614 -0.000142153 4.14163e-21)
(0.0509088 -0.00014449 -2.24846e-19)
(0.0509465 -0.000146877 1.99035e-19)
(0.0513217 -0.000147666 4.12564e-19)
(0.0745895 -0.00019028 -2.71544e-19)
(0.0478277 -0.000125877 3.52969e-19)
(0.0506975 -0.000134929 -4.12776e-20)
(0.0505292 -0.000136638 4.18094e-19)
(0.050571 -0.000138922 -3.87205e-19)
(0.0506031 -0.000141255 3.25018e-19)
(0.0509764 -0.000142016 -6.97861e-19)
(0.0741206 -0.000152148 -1.04742e-22)
(0.0475227 -0.000100888 3.22512e-19)
(0.0503677 -0.000107933 -3.94311e-20)
(0.0501956 -0.000109311 1.58336e-21)
(0.0502319 -0.000111121 3.43717e-19)
(0.0502583 -0.000112973 3.89288e-20)
(0.0506298 -0.000113584 3.40194e-19)
(0.0734576 -0.000111899 7.09716e-21)
(0.0474369 -0.000100194 5.38945e-21)
(0.0500184 -8.96818e-05 -2.037e-21)
(0.0498727 -9.29241e-05 -5.25931e-21)
(0.0499015 -9.4322e-05 -1.04682e-21)
(0.0499227 -9.59157e-05 2.51386e-21)
(0.0502923 -9.64328e-05 -2.72237e-19)
(0.0730284 -0.000106639 9.78945e-19)
(0.0469302 -7.70617e-05 -1.00708e-19)
(0.0497188 -8.19395e-05 -7.15981e-19)
(0.0495392 -8.29809e-05 -2.11598e-19)
(0.0495648 -8.4343e-05 3.97032e-19)
(0.049932 -8.48042e-05 -5.22468e-20)
(0.0728045 -0.000112237 -3.45259e-19)
(0.0466552 -7.39421e-05 3.60109e-20)
(0.0494395 -7.92497e-05 -3.30476e-19)
(0.0492564 -8.01648e-05 3.6937e-19)
(0.049278 -8.14195e-05 6.13528e-19)
(0.0496435 -8.18731e-05 -7.23093e-20)
(0.0722333 -0.000117564 -4.46758e-19)
(0.0463577 -8.50501e-05 4.90848e-20)
(0.0491037 -8.96738e-05 -2.47288e-21)
(0.0489175 -9.08353e-05 6.45615e-19)
(0.0489332 -9.22723e-05 6.52967e-19)
(0.0492969 -9.27836e-05 1.71048e-20)
(0.0713758 -1.83962e-05 -3.62964e-20)
(0.0461714 -0.000116584 2.71914e-21)
(0.0487783 -0.000103694 -1.43606e-22)
(0.0486018 -0.000106616 3.88954e-19)
(0.0486116 -0.000108161 -4.65881e-20)
(0.0486121 -0.000109848 3.43941e-21)
(0.0489744 -0.000110462 -3.21945e-19)
)
;

boundaryField
{
    inlet
    {
        type            calculated;
        value           nonuniform List<vector> 0();
    }
    outlet2
    {
        type            calculated;
        value           uniform (0 0 0);
    }
    outlet1
    {
        type            calculated;
        value           uniform (0 0 0);
    }
    wall
    {
        type            calculated;
        value           uniform (0 0 0);
    }
    symmetryBottom
    {
        type            symmetry;
    }
    symmetryZ0
    {
        type            symmetry;
    }
    symmetryZ05
    {
        type            symmetry;
    }
    procBoundary0to1
    {
        type            processor;
        value           uniform (0 0 0);
    }
}


// ************************************************************************* //
