/*--------------------------------*- C++ -*----------------------------------*\
| =========                 |                                                 |
| \\      /  F ield         | OpenFOAM: The Open Source CFD Toolbox           |
|  \\    /   O peration     | Version:  2412                                  |
|   \\  /    A nd           | Website:  www.openfoam.com                      |
|    \\/     M anipulation  |                                                 |
\*---------------------------------------------------------------------------*/
FoamFile
{
    version     2.0;
    format      ascii;
    arch        "LSB;label=32;scalar=64";
    class       volVectorField;
    location    "7e-07";
    object      rhoU_dof0;
}
// * * * * * * * * * * * * * * * * * * * * * * * * * * * * * * * * * * * * * //

dimensions      [0 0 0 0 0 0 0];

internalField   nonuniform List<vector> 
84
(
(0.0741265 2.09015e-05 2.33612e-20)
(0.0707812 2.03345e-05 -2.31938e-20)
(0.0708146 2.06435e-05 -5.39521e-20)
(0.0708146 2.09538e-05 2.48672e-20)
(0.0708147 2.12736e-05 3.20299e-22)
(0.0708149 2.16033e-05 2.90655e-21)
(0.070815 2.19435e-05 5.11054e-20)
(0.0708665 2.19547e-05 1.03089e-20)
(0.0746071 -2.08869e-05 2.02723e-20)
(0.0712498 -2.04432e-05 -2.04746e-20)
(0.0712903 -2.0754e-05 -6.67538e-20)
(0.0712975 -2.10684e-05 1.35731e-21)
(0.071305 -2.13926e-05 -1.12624e-19)
(0.0713128 -2.17268e-05 1.19393e-20)
(0.0713208 -2.20717e-05 9.41034e-20)
(0.0713726 -2.2081e-05 2.39264e-20)
(0.0745536 -2.06424e-05 -9.97886e-20)
(0.0712053 -2.05808e-05 1.44187e-20)
(0.0712419 -2.07424e-05 3.42379e-20)
(0.0712483 -2.10578e-05 -6.89097e-22)
(0.0712551 -2.13816e-05 -4.53209e-22)
(0.0712621 -2.17156e-05 4.57499e-20)
(0.0712693 -2.20601e-05 -3.51236e-20)
(0.0713211 -2.20693e-05 -4.65128e-20)
(0.0745119 -2.09765e-05 -1.01271e-19)
(0.0711602 -2.07287e-05 4.63128e-20)
(0.0711994 -2.10472e-05 -8.00433e-22)
(0.0712053 -2.13707e-05 -1.06563e-19)
(0.0712115 -2.17043e-05 9.44844e-20)
(0.0712179 -2.20484e-05 2.42879e-20)
(0.0712696 -2.20577e-05 -3.57094e-20)
(0.0744667 -2.11641e-05 -5.66049e-20)
(0.0711118 -2.07171e-05 -2.17176e-20)
(0.0711504 -2.10364e-05 2.28902e-22)
(0.0711554 -2.13595e-05 5.01733e-23)
(0.0711609 -2.16928e-05 -3.27759e-20)
(0.0711665 -2.20366e-05 2.80824e-20)
(0.0712182 -2.20458e-05 7.07079e-20)
(0.0744172 -2.00754e-05 -3.50038e-20)
(0.0710634 -1.9643e-05 5.67022e-20)
(0.0711012 -1.99462e-05 -5.49661e-22)
(0.0711056 -2.02529e-05 6.93693e-20)
(0.0711102 -2.05693e-05 -5.95731e-20)
(0.071115 -2.08956e-05 4.87952e-20)
(0.0711667 -2.09045e-05 -1.09079e-19)
(0.0743675 -1.61943e-05 -1.70527e-24)
(0.0710149 -1.58324e-05 5.47566e-20)
(0.0710519 -1.60769e-05 -5.41179e-22)
(0.0710555 -1.63239e-05 -1.75844e-22)
(0.0710594 -1.65788e-05 5.91063e-20)
(0.0710634 -1.68417e-05 9.44272e-21)
(0.0711151 -1.68491e-05 6.20844e-20)
(0.0743155 -1.34628e-05 -4.21742e-23)
(0.0709684 -1.34527e-05 -1.81249e-24)
(0.0710029 -1.35415e-05 -1.76177e-22)
(0.0710058 -1.37508e-05 -9.77339e-23)
(0.0710089 -1.39656e-05 3.13395e-23)
(0.0710121 -1.41872e-05 -2.84092e-23)
(0.0710637 -1.41936e-05 -4.58308e-20)
(0.0742691 -1.2499e-05 1.14797e-19)
(0.0709205 -1.23086e-05 -1.13677e-21)
(0.0709561 -1.25012e-05 -1.13204e-19)
(0.0709583 -1.26961e-05 -4.7535e-20)
(0.0709606 -1.28972e-05 5.59809e-20)
(0.0710123 -1.29033e-05 -3.18956e-23)
(0.074222 -1.26962e-05 -4.50809e-20)
(0.0708723 -1.23818e-05 4.61339e-22)
(0.0709072 -1.25754e-05 -5.66796e-20)
(0.0709086 -1.27704e-05 5.66342e-20)
(0.0709102 -1.29717e-05 1.07458e-19)
(0.0709618 -1.2978e-05 3.1799e-24)
(0.074171 -1.41387e-05 -5.65842e-20)
(0.0708235 -1.38718e-05 5.66946e-22)
(0.0708576 -1.40881e-05 2.01513e-23)
(0.0708582 -1.43068e-05 1.04812e-19)
(0.070859 -1.45326e-05 1.15682e-19)
(0.0709106 -1.45396e-05 1.47284e-20)
(0.0740716 -2.47302e-07 -5.21518e-22)
(0.0707761 -1.66383e-05 2.9007e-24)
(0.070808 -1.66629e-05 -9.63105e-27)
(0.0708079 -1.69192e-05 6.79038e-20)
(0.0708079 -1.71818e-05 -7.06577e-22)
(0.0708079 -1.74527e-05 3.97753e-24)
(0.0708595 -1.74615e-05 -5.59826e-20)
)
;

boundaryField
{
    inlet
    {
        type            calculated;
        value           nonuniform List<vector> 0();
    }
    outlet2
    {
        type            calculated;
        value           uniform (0.0741049 0 0);
    }
    outlet1
    {
        type            calculated;
        value           uniform (0.0741049 0 0);
    }
    wall
    {
        type            calculated;
        value           uniform (0.0741049 0 0);
    }
    symmetryBottom
    {
        type            symmetry;
    }
    symmetryZ0
    {
        type            symmetry;
    }
    symmetryZ05
    {
        type            symmetry;
    }
    procBoundary0to1
    {
        type            processor;
        value           uniform (0.0741049 0 0);
    }
}


// ************************************************************************* //
