/*--------------------------------*- C++ -*----------------------------------*\
| =========                 |                                                 |
| \\      /  F ield         | OpenFOAM: The Open Source CFD Toolbox           |
|  \\    /   O peration     | Version:  2412                                  |
|   \\  /    A nd           | Website:  www.openfoam.com                      |
|    \\/     M anipulation  |                                                 |
\*---------------------------------------------------------------------------*/
FoamFile
{
    version     2.0;
    format      ascii;
    arch        "LSB;label=32;scalar=64";
    class       volVectorField;
    location    "7e-07";
    object      U;
}
// * * * * * * * * * * * * * * * * * * * * * * * * * * * * * * * * * * * * * //

dimensions      [0 0 0 0 0 0 0];

internalField   nonuniform List<vector> 
84
(
(2636.25 0.743345 8.30822e-16)
(2635.52 0.757149 -8.63616e-16)
(2635.53 0.768295 -2.00795e-15)
(2635.53 0.779844 9.25491e-16)
(2635.53 0.791745 1.19206e-17)
(2635.53 0.804014 1.08174e-16)
(2635.52 0.81667 1.90199e-15)
(2635.53 0.816499 3.83388e-16)
(2636.49 -0.738109 7.16387e-16)
(2635.76 -0.756259 -7.5742e-16)
(2635.78 -0.767325 -2.46805e-15)
(2635.78 -0.778873 5.01779e-17)
(2635.78 -0.790773 -4.16312e-15)
(2635.78 -0.803043 4.41285e-16)
(2635.79 -0.815699 3.47776e-15)
(2635.8 -0.815452 8.83605e-16)
(2636.47 -0.729986 -3.52887e-15)
(2635.75 -0.761824 5.33727e-16)
(2635.77 -0.767415 1.26671e-15)
(2635.77 -0.779015 -2.54925e-17)
(2635.77 -0.790919 -1.67645e-17)
(2635.77 -0.803193 1.69215e-15)
(2635.77 -0.815854 -1.29899e-15)
(2635.79 -0.815607 -1.71895e-15)
(2636.47 -0.742216 -3.58329e-15)
(2635.74 -0.767783 1.71541e-15)
(2635.76 -0.779156 -2.96315e-17)
(2635.76 -0.791066 -3.94456e-15)
(2635.76 -0.803344 3.49716e-15)
(2635.76 -0.816009 8.9889e-16)
(2635.77 -0.815763 -1.32065e-15)
(2636.46 -0.749307 -2.00407e-15)
(2635.73 -0.767869 -8.04955e-16)
(2635.75 -0.779287 8.47961e-18)
(2635.75 -0.791202 1.85853e-18)
(2635.75 -0.803485 -1.214e-15)
(2635.75 -0.816155 1.04007e-15)
(2635.76 -0.815909 2.61687e-15)
(2636.44 -0.711228 -1.24011e-15)
(2635.72 -0.728552 2.10306e-15)
(2635.73 -0.739409 -2.0376e-17)
(2635.73 -0.750734 2.57137e-15)
(2635.73 -0.76241 -2.20811e-15)
(2635.74 -0.774454 1.8085e-15)
(2635.75 -0.774226 -4.03986e-15)
(2636.42 -0.574108 -6.0454e-20)
(2635.69 -0.587614 2.03227e-15)
(2635.71 -0.596379 -2.00753e-17)
(2635.71 -0.605515 -6.52272e-18)
(2635.71 -0.614934 2.19235e-15)
(2635.71 -0.624651 3.50227e-16)
(2635.72 -0.624475 2.30102e-15)
(2636.41 -0.477605 -1.49617e-18)
(2635.68 -0.499617 -6.73138e-20)
(2635.69 -0.502674 -6.53985e-18)
(2635.69 -0.510422 -3.62783e-18)
(2635.69 -0.518372 1.16325e-18)
(2635.7 -0.526574 -1.05444e-18)
(2635.71 -0.526433 -1.69983e-15)
(2636.4 -0.443688 4.07505e-15)
(2635.67 -0.457434 -4.22464e-17)
(2635.68 -0.464359 -4.20501e-15)
(2635.68 -0.471585 -1.76565e-15)
(2635.68 -0.479038 2.07929e-15)
(2635.7 -0.478918 -1.18384e-18)
(2636.39 -0.450973 -1.60129e-15)
(2635.67 -0.460468 1.71567e-17)
(2635.68 -0.467436 -2.10683e-15)
(2635.68 -0.474679 2.1051e-15)
(2635.68 -0.482149 3.99414e-15)
(2635.69 -0.482033 1.18109e-19)
(2636.39 -0.502558 -2.01127e-15)
(2635.66 -0.516233 2.10986e-17)
(2635.67 -0.524031 7.49562e-19)
(2635.67 -0.532164 3.89865e-15)
(2635.67 -0.540553 4.30292e-15)
(2635.69 -0.540423 5.47441e-16)
(2636.37 -0.00880202 -1.8562e-17)
(2635.65 -0.619599 1.0802e-19)
(2635.67 -0.620239 -3.58494e-22)
(2635.67 -0.62978 2.52757e-15)
(2635.67 -0.639555 -2.63008e-17)
(2635.67 -0.649638 1.48055e-19)
(2635.68 -0.649496 -2.08232e-15)
)
;

boundaryField
{
    inlet
    {
        type            calculated;
        value           nonuniform List<vector> 0();
    }
    outlet2
    {
        type            calculated;
        value           uniform (0 0 0);
    }
    outlet1
    {
        type            calculated;
        value           uniform (0 0 0);
    }
    wall
    {
        type            calculated;
        value           uniform (0 0 0);
    }
    symmetryBottom
    {
        type            symmetry;
    }
    symmetryZ0
    {
        type            symmetry;
    }
    symmetryZ05
    {
        type            symmetry;
    }
    procBoundary0to1
    {
        type            processor;
        value           uniform (0 0 0);
    }
}


// ************************************************************************* //
