/*--------------------------------*- C++ -*----------------------------------*\
| =========                 |                                                 |
| \\      /  F ield         | OpenFOAM: The Open Source CFD Toolbox           |
|  \\    /   O peration     | Version:  2412                                  |
|   \\  /    A nd           | Website:  www.openfoam.com                      |
|    \\/     M anipulation  |                                                 |
\*---------------------------------------------------------------------------*/
FoamFile
{
    version     2.0;
    format      ascii;
    arch        "LSB;label=32;scalar=64";
    class       volScalarField;
    location    "2e-07";
    object      rho_dof0;
}
// * * * * * * * * * * * * * * * * * * * * * * * * * * * * * * * * * * * * * //

dimensions      [0 0 0 0 0 0 0];

internalField   nonuniform List<scalar> 
84
(
2.81141e-05
2.77478e-05
2.77485e-05
2.77485e-05
2.77485e-05
2.77485e-05
2.77485e-05
2.77542e-05
2.81654e-05
2.77996e-05
2.78009e-05
2.78018e-05
2.78026e-05
2.78034e-05
2.78043e-05
2.781e-05
2.81601e-05
2.77943e-05
2.77956e-05
2.77963e-05
2.77971e-05
2.77978e-05
2.77986e-05
2.78043e-05
2.81556e-05
2.77896e-05
2.77909e-05
2.77915e-05
2.77922e-05
2.77929e-05
2.77986e-05
2.81503e-05
2.77843e-05
2.77854e-05
2.7786e-05
2.77866e-05
2.77872e-05
2.77929e-05
2.8145e-05
2.77789e-05
2.778e-05
2.77805e-05
2.7781e-05
2.77816e-05
2.77872e-05
2.81397e-05
2.77736e-05
2.77746e-05
2.7775e-05
2.77754e-05
2.77759e-05
2.77816e-05
2.81344e-05
2.77682e-05
2.77692e-05
2.77695e-05
2.77698e-05
2.77702e-05
2.77759e-05
2.81294e-05
2.77631e-05
2.7764e-05
2.77642e-05
2.77645e-05
2.77702e-05
2.81241e-05
2.77577e-05
2.77585e-05
2.77586e-05
2.77588e-05
2.77645e-05
2.81187e-05
2.77523e-05
2.7753e-05
2.7753e-05
2.77531e-05
2.77588e-05
2.81079e-05
2.77468e-05
2.77474e-05
2.77474e-05
2.77474e-05
2.77474e-05
2.77531e-05
)
;

boundaryField
{
    inlet
    {
        type            calculated;
        value           nonuniform List<scalar> 0();
    }
    outlet2
    {
        type            calculated;
        value           uniform 2.81085e-05;
    }
    outlet1
    {
        type            calculated;
        value           uniform 2.81085e-05;
    }
    wall
    {
        type            calculated;
        value           uniform 2.81085e-05;
    }
    symmetryBottom
    {
        type            symmetry;
    }
    symmetryZ0
    {
        type            symmetry;
    }
    symmetryZ05
    {
        type            symmetry;
    }
    procBoundary0to1
    {
        type            processor;
        value           uniform 2.81085e-05;
    }
}


// ************************************************************************* //
