/*--------------------------------*- C++ -*----------------------------------*\
| =========                 |                                                 |
| \\      /  F ield         | OpenFOAM: The Open Source CFD Toolbox           |
|  \\    /   O peration     | Version:  2412                                  |
|   \\  /    A nd           | Website:  www.openfoam.com                      |
|    \\/     M anipulation  |                                                 |
\*---------------------------------------------------------------------------*/
FoamFile
{
    version     2.0;
    format      ascii;
    arch        "LSB;label=32;scalar=64";
    class       volScalarField;
    location    "1.8e-06";
    object      E_dof0;
}
// * * * * * * * * * * * * * * * * * * * * * * * * * * * * * * * * * * * * * //

dimensions      [0 0 0 0 0 0 0];

internalField   nonuniform List<scalar> 
84
(
99.3109
88.1056
88.4238
88.4188
88.4194
88.4201
88.4208
88.5903
100.982
89.6199
89.9655
89.9837
90.0084
90.0339
90.0601
90.2319
100.765
89.5028
89.8064
89.8235
89.8457
89.8686
89.8922
90.0638
100.624
89.3291
89.6692
89.6832
89.7035
89.7245
89.8959
100.491
89.1714
89.5094
89.5209
89.5387
89.5571
89.7282
100.32
89.0157
89.3508
89.3598
89.3751
89.3908
89.5617
100.152
88.8634
89.1956
89.2023
89.2151
89.2282
89.3989
99.9612
88.7338
89.0415
89.0465
89.0569
89.0675
89.238
99.8243
88.5851
88.9121
88.9145
88.9229
89.0932
99.6225
88.3815
88.7052
88.7044
88.7095
88.8795
99.4494
88.2348
88.5554
88.5522
88.5549
88.7247
99.1134
88.0933
88.3978
88.3926
88.3928
88.3929
88.5625
)
;

boundaryField
{
    inlet
    {
        type            calculated;
        value           nonuniform List<scalar> 0();
    }
    outlet2
    {
        type            calculated;
        value           uniform 99.4306;
    }
    outlet1
    {
        type            calculated;
        value           uniform 99.4306;
    }
    wall
    {
        type            calculated;
        value           uniform 99.4306;
    }
    symmetryBottom
    {
        type            symmetry;
    }
    symmetryZ0
    {
        type            symmetry;
    }
    symmetryZ05
    {
        type            symmetry;
    }
    procBoundary0to1
    {
        type            processor;
        value           uniform 99.4306;
    }
}


// ************************************************************************* //
