/*--------------------------------*- C++ -*----------------------------------*\
| =========                 |                                                 |
| \\      /  F ield         | OpenFOAM: The Open Source CFD Toolbox           |
|  \\    /   O peration     | Version:  2412                                  |
|   \\  /    A nd           | Website:  www.openfoam.com                      |
|    \\/     M anipulation  |                                                 |
\*---------------------------------------------------------------------------*/
FoamFile
{
    version     2.0;
    format      ascii;
    arch        "LSB;label=32;scalar=64";
    class       volScalarField;
    location    "1.8e-06";
    object      rho_dof0;
}
// * * * * * * * * * * * * * * * * * * * * * * * * * * * * * * * * * * * * * //

dimensions      [0 0 0 0 0 0 0];

internalField   nonuniform List<scalar> 
84
(
2.80805e-05
2.49474e-05
2.50354e-05
2.50341e-05
2.50344e-05
2.50346e-05
2.50349e-05
2.50823e-05
2.85428e-05
2.53668e-05
2.54624e-05
2.54675e-05
2.54745e-05
2.54816e-05
2.54889e-05
2.5537e-05
2.84824e-05
2.5334e-05
2.54179e-05
2.54227e-05
2.54289e-05
2.54353e-05
2.54419e-05
2.54899e-05
2.8443e-05
2.52855e-05
2.53795e-05
2.53835e-05
2.53892e-05
2.5395e-05
2.5443e-05
2.84058e-05
2.52414e-05
2.53348e-05
2.53381e-05
2.53431e-05
2.53482e-05
2.53961e-05
2.83576e-05
2.51975e-05
2.52902e-05
2.52928e-05
2.5297e-05
2.53014e-05
2.53492e-05
2.83094e-05
2.51538e-05
2.52456e-05
2.52475e-05
2.5251e-05
2.52547e-05
2.53024e-05
2.82545e-05
2.51161e-05
2.52011e-05
2.52025e-05
2.52053e-05
2.52082e-05
2.52559e-05
2.82095e-05
2.50682e-05
2.51584e-05
2.51589e-05
2.51611e-05
2.52087e-05
2.81684e-05
2.50251e-05
2.51147e-05
2.51145e-05
2.51161e-05
2.51636e-05
2.81162e-05
2.49807e-05
2.50693e-05
2.50685e-05
2.50693e-05
2.51167e-05
2.80208e-05
2.49403e-05
2.50244e-05
2.5023e-05
2.50231e-05
2.50231e-05
2.50705e-05
)
;

boundaryField
{
    inlet
    {
        type            calculated;
        value           nonuniform List<scalar> 0();
    }
    outlet2
    {
        type            calculated;
        value           uniform 2.81085e-05;
    }
    outlet1
    {
        type            calculated;
        value           uniform 2.81085e-05;
    }
    wall
    {
        type            calculated;
        value           uniform 2.81085e-05;
    }
    symmetryBottom
    {
        type            symmetry;
    }
    symmetryZ0
    {
        type            symmetry;
    }
    symmetryZ05
    {
        type            symmetry;
    }
    procBoundary0to1
    {
        type            processor;
        value           uniform 2.81085e-05;
    }
}


// ************************************************************************* //
