/*--------------------------------*- C++ -*----------------------------------*\
| =========                 |                                                 |
| \\      /  F ield         | OpenFOAM: The Open Source CFD Toolbox           |
|  \\    /   O peration     | Version:  2412                                  |
|   \\  /    A nd           | Website:  www.openfoam.com                      |
|    \\/     M anipulation  |                                                 |
\*---------------------------------------------------------------------------*/
FoamFile
{
    version     2.0;
    format      ascii;
    arch        "LSB;label=32;scalar=64";
    class       volScalarField;
    location    "1.8e-06";
    object      T;
}
// * * * * * * * * * * * * * * * * * * * * * * * * * * * * * * * * * * * * * //

dimensions      [0 0 0 0 0 0 0];

internalField   nonuniform List<scalar> 
84
(
201.093
201.116
201.135
201.152
201.17
201.188
201.207
201.206
199.998
199.997
200
200
200
200
200
200
199.995
199.997
200
200
200
200
200
200
199.998
199.997
200
200
200
200
200
199.998
199.997
200
200
200
200
200
200.203
200.21
200.216
200.219
200.222
200.225
200.225
200.986
201.016
201.033
201.049
201.065
201.082
201.081
201.707
201.779
201.801
201.829
201.857
201.887
201.886
204.519
204.79
204.861
204.939
205.019
205.015
198.119
198.068
198.043
198.012
197.98
197.981
199.541
199.539
199.535
199.527
199.52
199.52
199.983
199.805
199.808
199.805
199.802
199.799
199.799
)
;

boundaryField
{
    inlet
    {
        type            calculated;
        value           nonuniform List<scalar> 0();
    }
    outlet2
    {
        type            calculated;
        value           uniform 0;
    }
    outlet1
    {
        type            calculated;
        value           uniform 0;
    }
    wall
    {
        type            calculated;
        value           uniform 0;
    }
    symmetryBottom
    {
        type            symmetry;
    }
    symmetryZ0
    {
        type            symmetry;
    }
    symmetryZ05
    {
        type            symmetry;
    }
    procBoundary0to1
    {
        type            processor;
        value           uniform 0;
    }
}


// ************************************************************************* //
