/*--------------------------------*- C++ -*----------------------------------*\
| =========                 |                                                 |
| \\      /  F ield         | OpenFOAM: The Open Source CFD Toolbox           |
|  \\    /   O peration     | Version:  2412                                  |
|   \\  /    A nd           | Website:  www.openfoam.com                      |
|    \\/     M anipulation  |                                                 |
\*---------------------------------------------------------------------------*/
FoamFile
{
    version     2.0;
    format      ascii;
    arch        "LSB;label=32;scalar=64";
    class       volVectorField;
    location    "1.8e-06";
    object      U;
}
// * * * * * * * * * * * * * * * * * * * * * * * * * * * * * * * * * * * * * //

dimensions      [0 0 0 0 0 0 0];

internalField   nonuniform List<vector> 
84
(
(2635.98 1.8979 2.02408e-15)
(2634.08 1.93289 -2.2977e-15)
(2634.19 1.96087 -5.20055e-15)
(2634.18 1.99015 2.39075e-15)
(2634.17 2.0203 -4.4656e-17)
(2634.17 2.05138 2.87627e-16)
(2634.16 2.08343 4.87771e-15)
(2634.19 2.08242 1.03338e-15)
(2636.58 -1.89688 1.98363e-15)
(2634.71 -1.94606 -2.15725e-15)
(2634.82 -1.97347 -6.22107e-15)
(2634.83 -2.00321 2.46256e-16)
(2634.83 -2.03381 -1.09475e-14)
(2634.83 -2.06536 1.45022e-15)
(2634.84 -2.09791 9.00062e-15)
(2634.87 -2.09665 2.16342e-15)
(2636.54 -1.83803 -8.82799e-15)
(2634.69 -1.99781 1.45028e-15)
(2634.8 -1.97217 3.22112e-15)
(2634.8 -2.00362 -1.25109e-16)
(2634.8 -2.0342 -6.67322e-17)
(2634.8 -2.06577 4.50991e-15)
(2634.81 -2.09833 -3.53181e-15)
(2634.84 -2.09707 -4.72843e-15)
(2636.52 -1.87774 -8.94085e-15)
(2634.66 -1.9764 4.60354e-15)
(2634.77 -2.00393 -1.60846e-16)
(2634.77 -2.0346 -1.01364e-14)
(2634.78 -2.06617 9.19826e-15)
(2634.78 -2.09874 2.05007e-15)
(2634.81 -2.09749 -3.44409e-15)
(2636.51 -1.92603 -4.86211e-15)
(2634.63 -1.97593 -2.06161e-15)
(2634.74 -2.00444 5.95217e-17)
(2634.74 -2.03511 1.67869e-17)
(2634.75 -2.06671 -3.22171e-15)
(2634.75 -2.0993 2.4812e-15)
(2634.78 -2.09804 6.89711e-15)
(2636.47 -1.83491 -3.05288e-15)
(2634.59 -1.88117 5.52434e-15)
(2634.71 -1.90854 -1.53836e-16)
(2634.7 -1.93792 6.72143e-15)
(2634.71 -1.96818 -5.76724e-15)
(2634.71 -1.9994 4.93646e-15)
(2634.74 -1.99822 -1.06527e-14)
(2636.42 -1.48051 -4.04698e-19)
(2634.53 -1.51679 5.46093e-15)
(2634.64 -1.53883 -1.53111e-16)
(2634.64 -1.56251 -1.4745e-17)
(2634.64 -1.5869 5.67257e-15)
(2634.65 -1.61207 9.59215e-16)
(2634.68 -1.61115 5.96364e-15)
(2636.37 -1.20199 1.62528e-17)
(2634.49 -1.32244 1.23481e-17)
(2634.6 -1.29868 -1.76284e-17)
(2634.6 -1.32012 -2.13263e-17)
(2634.6 -1.34078 -1.58616e-18)
(2634.6 -1.36212 3.70569e-18)
(2634.63 -1.36136 -4.39723e-15)
(2636.34 -1.12394 1.07379e-14)
(2634.45 -1.17817 -3.28552e-16)
(2634.57 -1.19519 -1.11165e-14)
(2634.56 -1.21383 -4.43868e-15)
(2634.56 -1.23304 5.78865e-15)
(2634.59 -1.23237 -3.16544e-18)
(2636.34 -1.15322 -3.80972e-15)
(2634.46 -1.17819 1.21764e-16)
(2634.58 -1.19562 -5.54871e-15)
(2634.58 -1.21405 5.79227e-15)
(2634.58 -1.23305 1.01877e-14)
(2634.61 -1.2324 -1.1602e-16)
(2636.33 -1.27024 -5.21246e-15)
(2634.44 -1.32564 1.60676e-16)
(2634.56 -1.34432 1.4046e-18)
(2634.56 -1.36517 1.01297e-14)
(2634.56 -1.38664 1.09784e-14)
(2634.59 -1.3859 1.05449e-15)
(2636.29 -0.0608875 -1.29767e-16)
(2634.43 -1.63093 2.56209e-18)
(2634.54 -1.58897 -3.1552e-20)
(2634.54 -1.61467 6.66468e-15)
(2634.54 -1.63964 -1.9099e-16)
(2634.54 -1.66542 3.38756e-18)
(2634.57 -1.66458 -5.76062e-15)
)
;

boundaryField
{
    inlet
    {
        type            calculated;
        value           nonuniform List<vector> 0();
    }
    outlet2
    {
        type            calculated;
        value           uniform (0 0 0);
    }
    outlet1
    {
        type            calculated;
        value           uniform (0 0 0);
    }
    wall
    {
        type            calculated;
        value           uniform (0 0 0);
    }
    symmetryBottom
    {
        type            symmetry;
    }
    symmetryZ0
    {
        type            symmetry;
    }
    symmetryZ05
    {
        type            symmetry;
    }
    procBoundary0to1
    {
        type            processor;
        value           uniform (0 0 0);
    }
}


// ************************************************************************* //
