/*--------------------------------*- C++ -*----------------------------------*\
| =========                 |                                                 |
| \\      /  F ield         | OpenFOAM: The Open Source CFD Toolbox           |
|  \\    /   O peration     | Version:  2412                                  |
|   \\  /    A nd           | Website:  www.openfoam.com                      |
|    \\/     M anipulation  |                                                 |
\*---------------------------------------------------------------------------*/
FoamFile
{
    version     2.0;
    format      ascii;
    arch        "LSB;label=32;scalar=64";
    class       volScalarField;
    location    "3.2e-06";
    object      E_dof0;
}
// * * * * * * * * * * * * * * * * * * * * * * * * * * * * * * * * * * * * * //

dimensions      [0 0 0 0 0 0 0];

internalField   nonuniform List<scalar> 
84
(
98.8208
79.7702
80.756
80.7244
80.7267
80.7283
80.7299
81.0116
101.782
82.2138
83.2639
83.2695
83.3111
83.3531
83.3965
83.6851
101.333
82.088
82.9964
83.0065
83.0436
83.0814
83.1203
83.4082
101.092
81.7423
82.7774
82.7761
82.8105
82.845
83.1322
100.905
81.483
82.5154
82.5101
82.5402
82.5704
82.8569
100.599
81.2294
82.255
82.2457
82.2716
82.2974
82.5832
100.299
80.9817
82.0004
81.9872
82.0089
82.0305
82.3157
99.9276
80.8082
81.7454
81.7331
81.7506
81.7681
82.0526
99.6841
80.53
81.5347
81.5146
81.529
81.8129
99.3611
80.2054
81.2039
81.1788
81.1881
81.471
99.0357
79.9678
80.9573
80.9285
80.9337
81.216
98.4485
79.7593
80.7009
80.6705
80.6715
80.6719
80.9536
)
;

boundaryField
{
    inlet
    {
        type            calculated;
        value           nonuniform List<scalar> 0();
    }
    outlet2
    {
        type            calculated;
        value           uniform 99.4306;
    }
    outlet1
    {
        type            calculated;
        value           uniform 99.4306;
    }
    wall
    {
        type            calculated;
        value           uniform 99.4306;
    }
    symmetryBottom
    {
        type            symmetry;
    }
    symmetryZ0
    {
        type            symmetry;
    }
    symmetryZ05
    {
        type            symmetry;
    }
    procBoundary0to1
    {
        type            processor;
        value           uniform 99.4306;
    }
}


// ************************************************************************* //
