/*--------------------------------*- C++ -*----------------------------------*\
| =========                 |                                                 |
| \\      /  F ield         | OpenFOAM: The Open Source CFD Toolbox           |
|  \\    /   O peration     | Version:  2412                                  |
|   \\  /    A nd           | Website:  www.openfoam.com                      |
|    \\/     M anipulation  |                                                 |
\*---------------------------------------------------------------------------*/
FoamFile
{
    version     2.0;
    format      ascii;
    arch        "LSB;label=32;scalar=64";
    class       volVectorField;
    location    "3.2e-06";
    object      U;
}
// * * * * * * * * * * * * * * * * * * * * * * * * * * * * * * * * * * * * * //

dimensions      [0 0 0 0 0 0 0];

internalField   nonuniform List<vector> 
84
(
(2635.54 3.3428 3.42118e-15)
(2632.1 3.40476 -4.22683e-15)
(2632.49 3.45287 -9.45611e-15)
(2632.46 3.50398 4.56017e-15)
(2632.45 3.55656 -2.65127e-16)
(2632.44 3.61073 5.41326e-16)
(2632.43 3.66658 8.8838e-15)
(2632.49 3.66351 1.86187e-15)
(2636.61 -3.36947 3.45185e-15)
(2633.22 -3.46327 -4.00921e-15)
(2633.62 -3.50832 -1.09443e-14)
(2633.61 -3.56143 7.05158e-16)
(2633.62 -3.61583 -1.96686e-14)
(2633.63 -3.67192 3.1547e-15)
(2633.63 -3.72978 1.58253e-14)
(2633.69 -3.72612 3.26722e-15)
(2636.53 -3.18824 -1.53783e-14)
(2633.22 -3.64997 2.96743e-15)
(2633.57 -3.49747 5.66388e-15)
(2633.56 -3.56252 -3.61912e-16)
(2633.57 -3.61652 -1.70539e-16)
(2633.57 -3.67265 8.14008e-15)
(2633.58 -3.73053 -6.49867e-15)
(2633.64 -3.72687 -8.04063e-15)
(2636.49 -3.27688 -1.52785e-14)
(2633.13 -3.52032 8.83209e-15)
(2633.53 -3.56244 -4.94967e-16)
(2633.52 -3.61725 -1.77357e-14)
(2633.52 -3.67338 1.68055e-14)
(2633.53 -3.73129 3.42828e-15)
(2633.59 -3.72763 -6.48072e-15)
(2636.48 -3.42259 -8.45612e-15)
(2633.08 -3.51559 -3.44137e-15)
(2633.48 -3.56381 1.86257e-16)
(2633.47 -3.61852 5.63169e-17)
(2633.47 -3.67469 -5.92761e-15)
(2633.48 -3.73264 4.55825e-15)
(2633.53 -3.72897 1.15841e-14)
(2636.42 -3.27622 -5.17168e-15)
(2633.01 -3.36186 9.95414e-15)
(2633.41 -3.4089 -5.19487e-16)
(2633.4 -3.46178 1.18287e-14)
(2633.4 -3.51611 -1.05564e-14)
(2633.41 -3.57219 9.12606e-15)
(2633.46 -3.56872 -1.93285e-14)
(2636.32 -2.64159 -1.16454e-18)
(2632.89 -2.71016 9.81237e-15)
(2633.3 -2.74744 -5.12345e-16)
(2633.28 -2.79008 -1.49248e-17)
(2633.28 -2.83384 9.84703e-15)
(2633.29 -2.87901 1.49671e-15)
(2633.34 -2.87625 1.01624e-14)
(2636.24 -2.08332 6.485e-17)
(2632.84 -2.44711 5.50801e-17)
(2633.22 -2.31879 -3.49601e-17)
(2633.2 -2.36484 -6.74812e-17)
(2633.2 -2.40184 -1.21459e-17)
(2633.2 -2.44039 2.32359e-17)
(2633.26 -2.43807 -8.55111e-15)
(2636.17 -1.96333 1.8544e-14)
(2632.73 -2.10047 -1.16033e-15)
(2633.13 -2.12736 -1.97082e-14)
(2633.11 -2.16071 -7.33733e-15)
(2633.11 -2.19495 1.08514e-14)
(2633.17 -2.19292 -1.3413e-16)
(2636.19 -2.03553 -6.60134e-15)
(2632.8 -2.08148 4.14578e-16)
(2633.2 -2.1111 -9.76308e-15)
(2633.18 -2.14347 1.02596e-14)
(2633.18 -2.17677 1.7319e-14)
(2633.24 -2.17481 -1.01894e-15)
(2636.16 -2.21124 -8.9581e-15)
(2632.75 -2.35617 5.56099e-16)
(2633.15 -2.38286 -5.7375e-18)
(2633.13 -2.41998 1.7774e-14)
(2633.13 -2.45792 1.89491e-14)
(2633.19 -2.45569 1.14631e-15)
(2636.1 -0.185426 -4.06755e-16)
(2632.73 -2.99373 1.64208e-17)
(2633.12 -2.80854 -3.8573e-19)
(2633.1 -2.86068 1.13162e-14)
(2633.1 -2.90453 -6.22993e-16)
(2633.1 -2.95003 2.09805e-17)
(2633.16 -2.94744 -1.03474e-14)
)
;

boundaryField
{
    inlet
    {
        type            calculated;
        value           nonuniform List<vector> 0();
    }
    outlet2
    {
        type            calculated;
        value           uniform (0 0 0);
    }
    outlet1
    {
        type            calculated;
        value           uniform (0 0 0);
    }
    wall
    {
        type            calculated;
        value           uniform (0 0 0);
    }
    symmetryBottom
    {
        type            symmetry;
    }
    symmetryZ0
    {
        type            symmetry;
    }
    symmetryZ05
    {
        type            symmetry;
    }
    procBoundary0to1
    {
        type            processor;
        value           uniform (0 0 0);
    }
}


// ************************************************************************* //
