/*--------------------------------*- C++ -*----------------------------------*\
| =========                 |                                                 |
| \\      /  F ield         | OpenFOAM: The Open Source CFD Toolbox           |
|  \\    /   O peration     | Version:  2412                                  |
|   \\  /    A nd           | Website:  www.openfoam.com                      |
|    \\/     M anipulation  |                                                 |
\*---------------------------------------------------------------------------*/
FoamFile
{
    version     2.0;
    format      ascii;
    arch        "LSB;label=32;scalar=64";
    class       volVectorField;
    location    "2.2e-06";
    object      rhoU_dof0;
}
// * * * * * * * * * * * * * * * * * * * * * * * * * * * * * * * * * * * * * //

dimensions      [0 0 0 0 0 0 0];

internalField   nonuniform List<vector> 
84
(
(0.0739412 6.48996e-05 6.72979e-20)
(0.0639174 5.71875e-05 -6.82533e-20)
(0.064267 5.83234e-05 -1.57786e-19)
(0.0642599 5.91858e-05 7.23739e-20)
(0.0642607 6.00809e-05 -2.18545e-21)
(0.0642613 6.10035e-05 8.70483e-21)
(0.0642621 6.19548e-05 1.47163e-19)
(0.0644128 6.20629e-05 3.2594e-20)
(0.0754508 -6.63304e-05 6.912e-20)
(0.0652505 -5.89305e-05 -6.57396e-20)
(0.0656266 -6.00855e-05 -1.90093e-19)
(0.0656399 -6.1004e-05 8.78686e-21)
(0.065662 -6.19566e-05 -3.36788e-19)
(0.0656845 -6.29393e-05 4.68693e-20)
(0.0657078 -6.39536e-05 2.75065e-19)
(0.065861 -6.40564e-05 6.26806e-20)
(0.0752454 -6.36492e-05 -3.09362e-19)
(0.0651563 -6.08509e-05 4.48921e-20)
(0.0654849 -5.98856e-05 9.7227e-20)
(0.065498 -6.08864e-05 -4.47944e-21)
(0.0655177 -6.18333e-05 -2.28602e-21)
(0.065538 -6.28121e-05 1.36845e-19)
(0.065559 -6.38224e-05 -1.07803e-19)
(0.0657119 -6.39251e-05 -1.43443e-19)
(0.0751189 -6.50282e-05 -3.09097e-19)
(0.0649936 -5.96268e-05 1.42077e-19)
(0.0653641 -6.07701e-05 -5.85177e-21)
(0.0653737 -6.17103e-05 -3.05768e-19)
(0.0653918 -6.26852e-05 2.8351e-19)
(0.0654104 -6.36915e-05 6.16892e-20)
(0.0655631 -6.3794e-05 -1.06852e-19)
(0.0750059 -6.69613e-05 -1.68242e-19)
(0.0648539 -5.94712e-05 -6.05266e-20)
(0.0652226 -6.06569e-05 2.20489e-21)
(0.06523 -6.15928e-05 6.39204e-22)
(0.0652459 -6.25641e-05 -9.80891e-20)
(0.0652621 -6.35665e-05 7.52516e-20)
(0.0654146 -6.3669e-05 2.05999e-19)
(0.074849 -6.37474e-05 -1.05254e-19)
(0.064715 -5.65702e-05 1.69327e-19)
(0.0650809 -5.77056e-05 -5.81928e-21)
(0.0650861 -5.86003e-05 2.0366e-19)
(0.0650997 -5.9529e-05 -1.7819e-19)
(0.0651136 -6.04876e-05 1.5051e-19)
(0.0652658 -6.05859e-05 -3.27713e-19)
(0.0746914 -5.13185e-05 -1.67285e-23)
(0.0645757 -4.55125e-05 1.67398e-19)
(0.0649387 -4.64215e-05 -5.75374e-21)
(0.0649418 -4.71396e-05 -4.02964e-22)
(0.0649531 -4.78849e-05 1.7055e-19)
(0.0649646 -4.8654e-05 2.77135e-20)
(0.0651166 -4.87338e-05 1.80534e-19)
(0.0745084 -4.12109e-05 7.79373e-22)
(0.0644617 -3.99965e-05 5.20368e-22)
(0.0647971 -3.91005e-05 -5.43766e-22)
(0.064799 -3.97754e-05 -7.79789e-22)
(0.0648081 -4.04041e-05 -9.58879e-23)
(0.0648173 -4.10546e-05 1.88327e-22)
(0.064969 -4.11225e-05 -1.37764e-19)
(0.0743623 -3.85477e-05 3.72738e-19)
(0.0643044 -3.518e-05 -1.24376e-20)
(0.0646616 -3.58709e-05 -3.3739e-19)
(0.0646604 -3.64303e-05 -1.29322e-19)
(0.0646674 -3.7011e-05 1.7786e-19)
(0.0648189 -3.7073e-05 -9.88534e-23)
(0.0742349 -3.96088e-05 -1.3115e-19)
(0.0641706 -3.50196e-05 4.52854e-21)
(0.0645258 -3.57266e-05 -1.67591e-19)
(0.0645225 -3.62748e-05 1.74641e-19)
(0.0645274 -3.68441e-05 3.03621e-19)
(0.0646786 -3.69066e-05 -8.80362e-21)
(0.0740635 -4.33504e-05 -1.76154e-19)
(0.0640307 -3.93775e-05 6.02647e-21)
(0.0643824 -4.0125e-05 1.69366e-23)
(0.0643769 -4.07442e-05 3.0417e-19)
(0.0643794 -4.1386e-05 3.26905e-19)
(0.0645304 -4.1456e-05 2.64645e-20)
(0.0737565 -2.52552e-06 -5.43031e-21)
(0.0639067 -4.87959e-05 1.18864e-22)
(0.0642409 -4.72916e-05 -1.85725e-24)
(0.0642338 -4.80758e-05 1.9879e-19)
(0.0642341 -4.8818e-05 -7.06052e-21)
(0.0642342 -4.95848e-05 1.56698e-22)
(0.064385 -4.96702e-05 -1.75391e-19)
)
;

boundaryField
{
    inlet
    {
        type            calculated;
        value           nonuniform List<vector> 0();
    }
    outlet2
    {
        type            calculated;
        value           uniform (0.0741049 0 0);
    }
    outlet1
    {
        type            calculated;
        value           uniform (0.0741049 0 0);
    }
    wall
    {
        type            calculated;
        value           uniform (0.0741049 0 0);
    }
    symmetryBottom
    {
        type            symmetry;
    }
    symmetryZ0
    {
        type            symmetry;
    }
    symmetryZ05
    {
        type            symmetry;
    }
    procBoundary0to1
    {
        type            processor;
        value           uniform (0.0741049 0 0);
    }
}


// ************************************************************************* //
