/*--------------------------------*- C++ -*----------------------------------*\
| =========                 |                                                 |
| \\      /  F ield         | OpenFOAM: The Open Source CFD Toolbox           |
|  \\    /   O peration     | Version:  2412                                  |
|   \\  /    A nd           | Website:  www.openfoam.com                      |
|    \\/     M anipulation  |                                                 |
\*---------------------------------------------------------------------------*/
FoamFile
{
    version     2.0;
    format      ascii;
    arch        "LSB;label=32;scalar=64";
    class       volScalarField;
    location    "3.6e-06";
    object      T;
}
// * * * * * * * * * * * * * * * * * * * * * * * * * * * * * * * * * * * * * //

dimensions      [0 0 0 0 0 0 0];

internalField   nonuniform List<scalar> 
84
(
202.185
202.227
202.275
202.308
202.343
202.38
202.417
202.415
199.991
199.985
200
199.999
199.999
199.999
199.999
199.999
199.982
199.986
200
199.999
199.999
199.999
199.999
199.999
199.992
199.984
200
199.999
199.999
199.999
199.999
199.993
199.986
200.002
200.001
200.001
200.001
200.001
200.363
200.374
200.393
200.397
200.401
200.406
200.406
201.96
202.021
202.062
202.092
202.125
202.158
202.156
203.402
203.598
203.63
203.688
203.746
203.805
203.801
209.12
209.981
210.109
210.278
210.451
210.437
196.166
196.066
196.025
195.959
195.893
195.898
199.042
199.056
199.054
199.037
199.022
199.023
199.935
199.588
199.61
199.602
199.596
199.589
199.59
)
;

boundaryField
{
    inlet
    {
        type            calculated;
        value           nonuniform List<scalar> 0();
    }
    outlet2
    {
        type            calculated;
        value           uniform 0;
    }
    outlet1
    {
        type            calculated;
        value           uniform 0;
    }
    wall
    {
        type            calculated;
        value           uniform 0;
    }
    symmetryBottom
    {
        type            symmetry;
    }
    symmetryZ0
    {
        type            symmetry;
    }
    symmetryZ05
    {
        type            symmetry;
    }
    procBoundary0to1
    {
        type            processor;
        value           uniform 0;
    }
}


// ************************************************************************* //
