/*--------------------------------*- C++ -*----------------------------------*\
| =========                 |                                                 |
| \\      /  F ield         | OpenFOAM: The Open Source CFD Toolbox           |
|  \\    /   O peration     | Version:  2412                                  |
|   \\  /    A nd           | Website:  www.openfoam.com                      |
|    \\/     M anipulation  |                                                 |
\*---------------------------------------------------------------------------*/
FoamFile
{
    version     2.0;
    format      ascii;
    arch        "LSB;label=32;scalar=64";
    class       volScalarField;
    location    "2.9e-06";
    object      E;
}
// * * * * * * * * * * * * * * * * * * * * * * * * * * * * * * * * * * * * * //

dimensions      [0 0 0 0 0 0 0];

internalField   nonuniform List<scalar> 
84
(
98.9522
81.5219
82.3366
82.3133
82.3151
82.3165
82.3179
82.5769
101.638
83.7837
84.653
84.6642
84.7023
84.741
84.7809
85.0456
101.243
83.654
84.408
84.4217
84.4558
84.4905
84.5264
84.7906
101.023
83.3476
84.2045
84.2094
84.2408
84.2726
84.5362
100.845
83.1087
83.963
83.9641
83.9916
84.0194
84.2824
100.567
82.8744
83.7229
83.7203
83.744
83.7678
84.0302
100.296
82.6455
83.4882
83.482
83.5018
83.5217
83.7836
99.9649
82.4774
83.2537
83.2474
83.2634
83.2795
83.5409
99.7441
82.2279
83.0589
83.0463
83.0595
83.3203
99.4446
81.9267
82.7523
82.7351
82.7433
83.0034
99.1529
81.7068
82.5251
82.5044
82.509
82.7685
98.6188
81.5098
82.2884
82.2657
82.2665
82.2668
82.5258
)
;

boundaryField
{
    inlet
    {
        type            calculated;
        value           nonuniform List<scalar> 0();
    }
    outlet2
    {
        type            calculated;
        value           uniform 0;
    }
    outlet1
    {
        type            calculated;
        value           uniform 0;
    }
    wall
    {
        type            calculated;
        value           uniform 0;
    }
    symmetryBottom
    {
        type            symmetry;
    }
    symmetryZ0
    {
        type            symmetry;
    }
    symmetryZ05
    {
        type            symmetry;
    }
    procBoundary0to1
    {
        type            processor;
        value           uniform 0;
    }
}


// ************************************************************************* //
