/*--------------------------------*- C++ -*----------------------------------*\
| =========                 |                                                 |
| \\      /  F ield         | OpenFOAM: The Open Source CFD Toolbox           |
|  \\    /   O peration     | Version:  2412                                  |
|   \\  /    A nd           | Website:  www.openfoam.com                      |
|    \\/     M anipulation  |                                                 |
\*---------------------------------------------------------------------------*/
FoamFile
{
    version     2.0;
    format      ascii;
    arch        "LSB;label=32;scalar=64";
    class       volScalarField;
    location    "2.9e-06";
    object      rho_dof0;
}
// * * * * * * * * * * * * * * * * * * * * * * * * * * * * * * * * * * * * * //

dimensions      [0 0 0 0 0 0 0];

internalField   nonuniform List<scalar> 
84
(
2.79844e-05
2.31084e-05
2.33338e-05
2.33275e-05
2.33281e-05
2.33286e-05
2.33291e-05
2.34016e-05
2.87276e-05
2.37354e-05
2.39757e-05
2.39791e-05
2.39897e-05
2.40005e-05
2.40117e-05
2.40858e-05
2.86177e-05
2.36987e-05
2.39072e-05
2.39112e-05
2.39207e-05
2.39304e-05
2.39405e-05
2.40144e-05
2.8556e-05
2.36133e-05
2.38502e-05
2.38518e-05
2.38605e-05
2.38695e-05
2.39432e-05
2.85059e-05
2.35464e-05
2.37826e-05
2.37831e-05
2.37908e-05
2.37986e-05
2.38721e-05
2.84279e-05
2.34804e-05
2.3715e-05
2.37145e-05
2.37211e-05
2.37277e-05
2.38011e-05
2.83499e-05
2.34146e-05
2.36476e-05
2.3646e-05
2.36515e-05
2.3657e-05
2.37303e-05
2.82551e-05
2.33654e-05
2.35798e-05
2.35782e-05
2.35826e-05
2.3587e-05
2.36601e-05
2.81826e-05
2.3286e-05
2.35154e-05
2.35118e-05
2.35153e-05
2.35882e-05
2.81234e-05
2.32223e-05
2.34508e-05
2.34463e-05
2.34487e-05
2.35215e-05
2.80357e-05
2.31558e-05
2.33821e-05
2.33765e-05
2.33778e-05
2.34504e-05
2.7884e-05
2.30995e-05
2.33146e-05
2.33084e-05
2.33086e-05
2.33087e-05
2.33812e-05
)
;

boundaryField
{
    inlet
    {
        type            calculated;
        value           nonuniform List<scalar> 0();
    }
    outlet2
    {
        type            calculated;
        value           uniform 2.81085e-05;
    }
    outlet1
    {
        type            calculated;
        value           uniform 2.81085e-05;
    }
    wall
    {
        type            calculated;
        value           uniform 2.81085e-05;
    }
    symmetryBottom
    {
        type            symmetry;
    }
    symmetryZ0
    {
        type            symmetry;
    }
    symmetryZ05
    {
        type            symmetry;
    }
    procBoundary0to1
    {
        type            processor;
        value           uniform 2.81085e-05;
    }
}


// ************************************************************************* //
