/*--------------------------------*- C++ -*----------------------------------*\
| =========                 |                                                 |
| \\      /  F ield         | OpenFOAM: The Open Source CFD Toolbox           |
|  \\    /   O peration     | Version:  2412                                  |
|   \\  /    A nd           | Website:  www.openfoam.com                      |
|    \\/     M anipulation  |                                                 |
\*---------------------------------------------------------------------------*/
FoamFile
{
    version     2.0;
    format      ascii;
    arch        "LSB;label=32;scalar=64";
    class       volVectorField;
    location    "1.7e-06";
    object      rhoU;
}
// * * * * * * * * * * * * * * * * * * * * * * * * * * * * * * * * * * * * * //

dimensions      [0 0 0 0 0 0 0];

internalField   nonuniform List<vector> 
84
(
(0.0740361 5.0377e-05 5.28543e-20)
(0.0661664 4.58833e-05 -5.45941e-20)
(0.0663756 4.66939e-05 -1.22531e-19)
(0.0663726 4.73895e-05 5.67492e-20)
(0.0663731 4.81084e-05 -8.9578e-22)
(0.0663735 4.88495e-05 6.82055e-21)
(0.066374 4.96137e-05 1.14689e-19)
(0.0664933 4.96796e-05 2.46235e-20)
(0.0752033 -5.11017e-05 5.27802e-20)
(0.0672319 -4.68955e-05 -5.19756e-20)
(0.06746 -4.77184e-05 -1.50747e-19)
(0.0674733 -4.84468e-05 5.70163e-21)
(0.0674907 -4.91995e-05 -2.63956e-19)
(0.0675086 -4.99759e-05 3.45847e-20)
(0.0675271 -5.07773e-05 2.16792e-19)
(0.0676479 -5.08385e-05 5.22774e-20)
(0.0750538 -4.95073e-05 -2.38253e-19)
(0.0671474 -4.79965e-05 3.4789e-20)
(0.0673481 -4.76135e-05 7.79998e-20)
(0.0673605 -4.8376e-05 -2.8851e-21)
(0.0673761 -4.91259e-05 -1.56034e-21)
(0.0673922 -4.99001e-05 1.09156e-19)
(0.0674088 -5.0699e-05 -8.53826e-20)
(0.0675295 -5.07601e-05 -1.14443e-19)
(0.0749549 -5.04886e-05 -2.40142e-19)
(0.067027 -4.74803e-05 1.10402e-19)
(0.0672513 -4.83058e-05 -3.68533e-21)
(0.0672617 -4.90525e-05 -2.43658e-19)
(0.067276 -4.98243e-05 2.20328e-19)
(0.0672908 -5.06208e-05 4.99025e-20)
(0.0674113 -5.06819e-05 -8.31856e-20)
(0.0748603 -5.16506e-05 -1.30493e-19)
(0.066916 -4.73934e-05 -4.9831e-20)
(0.0671388 -4.82374e-05 1.34996e-21)
(0.0671474 -4.89817e-05 3.77416e-22)
(0.0671599 -4.97514e-05 -7.75178e-20)
(0.0671728 -5.05456e-05 5.83455e-20)
(0.0672932 -5.06066e-05 1.6634e-19)
(0.0747394 -4.91116e-05 -8.15035e-20)
(0.0668053 -4.50324e-05 1.32352e-19)
(0.0670261 -4.58384e-05 -3.467e-21)
(0.067033 -4.65482e-05 1.6189e-19)
(0.0670437 -4.72823e-05 -1.37096e-19)
(0.0670548 -4.80399e-05 1.18892e-19)
(0.067175 -4.80985e-05 -2.55257e-19)
(0.0746179 -3.95641e-05 -1.02683e-23)
(0.0666943 -3.62509e-05 1.30842e-19)
(0.0669131 -3.68983e-05 -3.44771e-21)
(0.0669182 -3.74687e-05 -3.60645e-22)
(0.0669271 -3.80585e-05 1.34906e-19)
(0.0669363 -3.86672e-05 2.32854e-20)
(0.0670564 -3.87149e-05 1.43486e-19)
(0.0744812 -3.21322e-05 3.89401e-22)
(0.066598 -3.14858e-05 2.65646e-22)
(0.0668007 -3.10857e-05 -4.19724e-22)
(0.0668045 -3.15961e-05 -4.83637e-22)
(0.0668116 -3.20939e-05 -2.81059e-23)
(0.066819 -3.2608e-05 7.39228e-23)
(0.0669389 -3.26487e-05 -1.05119e-19)
(0.0743684 -2.99832e-05 2.85512e-19)
(0.0664782 -2.80724e-05 -7.32084e-21)
(0.0666929 -2.85714e-05 -2.64772e-19)
(0.0666947 -2.90177e-05 -1.0565e-19)
(0.0667002 -2.94792e-05 1.3832e-19)
(0.06682 -2.95166e-05 -7.55436e-23)
(0.0742647 -3.06965e-05 -1.02321e-19)
(0.0663704 -2.80447e-05 2.72053e-21)
(0.0665835 -2.85507e-05 -1.31168e-19)
(0.0665837 -2.89912e-05 1.36732e-19)
(0.0665874 -2.94468e-05 2.42309e-19)
(0.066707 -2.94846e-05 -1.44903e-21)
(0.074135 -3.37875e-05 -1.38433e-19)
(0.0662588 -3.14899e-05 3.57216e-21)
(0.0664696 -3.20383e-05 3.70583e-23)
(0.0664679 -3.25343e-05 2.4019e-19)
(0.0664699 -3.3047e-05 2.62092e-19)
(0.0665893 -3.30894e-05 2.64895e-20)
(0.0738964 -1.52406e-06 -3.24381e-21)
(0.0661567 -3.85948e-05 5.34607e-23)
(0.0663568 -3.78104e-05 -6.16785e-25)
(0.0663536 -3.8416e-05 1.58702e-19)
(0.0663537 -3.90104e-05 -4.27023e-21)
(0.0663538 -3.9624e-05 7.10243e-23)
(0.0664731 -3.96758e-05 -1.37049e-19)
)
;

boundaryField
{
    inlet
    {
        type            calculated;
        value           nonuniform List<vector> 0();
    }
    outlet2
    {
        type            calculated;
        value           uniform (0 0 0);
    }
    outlet1
    {
        type            calculated;
        value           uniform (0 0 0);
    }
    wall
    {
        type            calculated;
        value           uniform (0 0 0);
    }
    symmetryBottom
    {
        type            symmetry;
    }
    symmetryZ0
    {
        type            symmetry;
    }
    symmetryZ05
    {
        type            symmetry;
    }
    procBoundary0to1
    {
        type            processor;
        value           uniform (0 0 0);
    }
}


// ************************************************************************* //
