/*--------------------------------*- C++ -*----------------------------------*\
| =========                 |                                                 |
| \\      /  F ield         | OpenFOAM: The Open Source CFD Toolbox           |
|  \\    /   O peration     | Version:  2412                                  |
|   \\  /    A nd           | Website:  www.openfoam.com                      |
|    \\/     M anipulation  |                                                 |
\*---------------------------------------------------------------------------*/
FoamFile
{
    version     2.0;
    format      ascii;
    arch        "LSB;label=32;scalar=64";
    class       volScalarField;
    location    "1.7e-06";
    object      T;
}
// * * * * * * * * * * * * * * * * * * * * * * * * * * * * * * * * * * * * * //

dimensions      [0 0 0 0 0 0 0];

internalField   nonuniform List<scalar> 
84
(
201.032
201.054
201.072
201.088
201.105
201.122
201.14
201.139
199.998
199.997
200
200
200
200
200
200
199.996
199.997
200
200
200
200
200
200
199.998
199.997
200
200
200
200
200
199.998
199.997
200
200
200
200
200
200.193
200.199
200.205
200.207
200.21
200.213
200.213
200.932
200.959
200.976
200.991
201.006
201.022
201.021
201.612
201.679
201.7
201.726
201.753
201.781
201.78
204.267
204.514
204.582
204.655
204.73
204.727
198.225
198.177
198.153
198.124
198.094
198.095
199.568
199.565
199.561
199.554
199.547
199.547
199.985
199.817
199.819
199.816
199.813
199.81
199.811
)
;

boundaryField
{
    inlet
    {
        type            calculated;
        value           nonuniform List<scalar> 0();
    }
    outlet2
    {
        type            calculated;
        value           uniform 0;
    }
    outlet1
    {
        type            calculated;
        value           uniform 0;
    }
    wall
    {
        type            calculated;
        value           uniform 0;
    }
    symmetryBottom
    {
        type            symmetry;
    }
    symmetryZ0
    {
        type            symmetry;
    }
    symmetryZ05
    {
        type            symmetry;
    }
    procBoundary0to1
    {
        type            processor;
        value           uniform 0;
    }
}


// ************************************************************************* //
