/*--------------------------------*- C++ -*----------------------------------*\
| =========                 |                                                 |
| \\      /  F ield         | OpenFOAM: The Open Source CFD Toolbox           |
|  \\    /   O peration     | Version:  2412                                  |
|   \\  /    A nd           | Website:  www.openfoam.com                      |
|    \\/     M anipulation  |                                                 |
\*---------------------------------------------------------------------------*/
FoamFile
{
    version     2.0;
    format      ascii;
    arch        "LSB;label=32;scalar=64";
    class       volScalarField;
    location    "9.5e-06";
    object      E_dof0;
}
// * * * * * * * * * * * * * * * * * * * * * * * * * * * * * * * * * * * * * //

dimensions      [0 0 0 0 0 0 0];

internalField   nonuniform List<scalar> 
84
(
102.167
50.7622
54.6811
54.499
54.5245
54.5456
54.5112
55.2044
109.584
54.5402
58.7973
58.6657
58.7582
58.8476
58.8869
59.6202
108.056
54.6658
58.2795
58.2
58.2825
58.3653
58.3973
59.1259
106.812
53.7596
57.8605
57.7227
57.8042
57.826
58.5495
106.933
53.1817
57.324
57.1749
57.2474
57.2593
57.9777
105.983
52.6898
56.7884
56.6324
56.6958
56.698
57.4113
105.026
52.2057
56.2574
56.095
56.1495
56.1423
56.8505
103.773
51.9715
55.7074
55.5639
55.6084
55.5919
56.2951
102.707
51.3033
55.2351
55.0648
55.047
55.745
102.253
50.7859
54.7127
54.534
54.5073
55.2003
101.255
50.3161
54.193
54.0083
53.9727
54.6608
99.387
49.9796
53.6664
53.4835
53.4955
53.4435
54.127
)
;

boundaryField
{
    inlet
    {
        type            calculated;
        value           nonuniform List<scalar> 0();
    }
    outlet2
    {
        type            calculated;
        value           uniform 99.4306;
    }
    outlet1
    {
        type            calculated;
        value           uniform 99.4306;
    }
    wall
    {
        type            calculated;
        value           uniform 99.4306;
    }
    symmetryBottom
    {
        type            symmetry;
    }
    symmetryZ0
    {
        type            symmetry;
    }
    symmetryZ05
    {
        type            symmetry;
    }
    procBoundary0to1
    {
        type            processor;
        value           uniform 99.4306;
    }
}


// ************************************************************************* //
