/*--------------------------------*- C++ -*----------------------------------*\
| =========                 |                                                 |
| \\      /  F ield         | OpenFOAM: The Open Source CFD Toolbox           |
|  \\    /   O peration     | Version:  2412                                  |
|   \\  /    A nd           | Website:  www.openfoam.com                      |
|    \\/     M anipulation  |                                                 |
\*---------------------------------------------------------------------------*/
FoamFile
{
    version     2.0;
    format      ascii;
    arch        "LSB;label=32;scalar=64";
    class       volVectorField;
    location    "9.5e-06";
    object      rhoU;
}
// * * * * * * * * * * * * * * * * * * * * * * * * * * * * * * * * * * * * * //

dimensions      [0 0 0 0 0 0 0];

internalField   nonuniform List<vector> 
84
(
(0.0761203 -5.36155e-06 3.34915e-19)
(0.0379959 -3.16174e-06 -1.78137e-19)
(0.0408863 -3.39847e-06 -5.03887e-19)
(0.0407528 -3.49463e-06 2.51926e-19)
(0.0407716 -3.60111e-06 -2.66974e-20)
(0.0407871 -3.71205e-06 -1.82971e-20)
(0.0407618 -3.83766e-06 4.51573e-19)
(0.0412763 -3.85314e-06 3.95016e-20)
(0.0816271 -0.000303769 3.28403e-19)
(0.0408117 -0.000157372 -1.7303e-19)
(0.0439517 -0.000170917 -6.28687e-19)
(0.043856 -0.000173141 1.44842e-19)
(0.0439246 -0.000176008 -1.09983e-18)
(0.043991 -0.000178943 1.40432e-19)
(0.0440205 -0.000182115 8.80842e-19)
(0.0445647 -0.000183722 1.57894e-19)
(0.0804973 -0.000280936 -1.47582e-18)
(0.0409013 -0.00017892 1.70016e-19)
(0.0435672 -0.000170939 3.03503e-19)
(0.0435096 -0.00017522 -2.34903e-20)
(0.0435709 -0.000178041 -6.27154e-20)
(0.0436323 -0.000181046 4.78687e-19)
(0.0436564 -0.000184292 -3.24753e-19)
(0.0441972 -0.000185911 -3.94758e-19)
(0.0795774 -0.000270033 -1.45953e-18)
(0.04023 -0.000162936 5.13859e-19)
(0.0432553 -0.000173994 3.6402e-20)
(0.0431549 -0.000176435 -1.0319e-18)
(0.0432153 -0.000179401 9.36231e-19)
(0.0432318 -0.00018259 1.60753e-19)
(0.0437688 -0.000184199 -3.09284e-19)
(0.0796629 -0.000306229 -7.75505e-19)
(0.0398009 -0.000158603 -1.44222e-19)
(0.0428565 -0.000172557 1.23142e-20)
(0.0427477 -0.000174801 2.01449e-20)
(0.0428014 -0.000177721 -3.27288e-19)
(0.0428105 -0.00018085 2.01538e-19)
(0.0433438 -0.00018245 5.90665e-19)
(0.0789595 -0.000304264 -5.08719e-19)
(0.0394349 -0.000157127 5.44562e-19)
(0.0424583 -0.000170991 -9.44391e-20)
(0.0423444 -0.000173188 6.80601e-19)
(0.0423914 -0.000176055 -6.27247e-19)
(0.0423933 -0.000179125 5.56252e-19)
(0.0429228 -0.000180716 -9.52972e-19)
(0.0782503 -0.000301437 -4.74888e-20)
(0.0390747 -0.000155847 5.07008e-19)
(0.0420636 -0.000169422 -3.95657e-20)
(0.0419449 -0.00017159 -3.59521e-20)
(0.0419853 -0.000174405 5.32501e-19)
(0.0419802 -0.000177417 2.89916e-20)
(0.0425059 -0.000178999 4.93893e-19)
(0.0773229 -0.000276089 7.23757e-21)
(0.0388988 -0.000173462 8.45172e-21)
(0.041655 -0.000166049 -1.82628e-21)
(0.0415501 -0.000170108 -6.86945e-21)
(0.041583 -0.000172766 1.91002e-21)
(0.041571 -0.000175726 3.29434e-20)
(0.042093 -0.000177297 -3.99343e-19)
(0.0765342 -0.000262764 1.75464e-18)
(0.0384028 -0.000158138 -4.13912e-20)
(0.0413037 -0.000168852 -1.00286e-18)
(0.041179 -0.000171134 -3.68657e-19)
(0.0411659 -0.00017405 5.7034e-19)
(0.0416841 -0.000175612 -3.55472e-20)
(0.0761961 -0.000297863 -6.0325e-19)
(0.0380182 -0.000153916 8.49179e-20)
(0.0409153 -0.000167432 -5.62775e-19)
(0.0407843 -0.000169524 4.96268e-19)
(0.0407646 -0.00017239 9.15112e-19)
(0.0412791 -0.000173943 -8.64378e-20)
(0.0754569 -0.000277184 -8.08504e-19)
(0.0376685 -0.000154268 5.93018e-20)
(0.0405289 -0.000165788 -7.30038e-20)
(0.0403934 -0.000167939 8.56387e-19)
(0.0403672 -0.000170746 9.75762e-19)
(0.040878 -0.000172289 1.76574e-20)
(0.0740727 -1.70317e-05 -4.22887e-20)
(0.0374171 -0.000185945 3.5398e-21)
(0.0401374 -0.000159051 -4.75763e-20)
(0.0400032 -0.000163877 6.11419e-19)
(0.040012 -0.000166305 -5.03014e-20)
(0.0399737 -0.000169048 4.35846e-20)
(0.0404811 -0.000170587 -4.95961e-19)
)
;

boundaryField
{
    inlet
    {
        type            calculated;
        value           nonuniform List<vector> 0();
    }
    outlet2
    {
        type            calculated;
        value           uniform (0 0 0);
    }
    outlet1
    {
        type            calculated;
        value           uniform (0 0 0);
    }
    wall
    {
        type            calculated;
        value           uniform (0 0 0);
    }
    symmetryBottom
    {
        type            symmetry;
    }
    symmetryZ0
    {
        type            symmetry;
    }
    symmetryZ05
    {
        type            symmetry;
    }
    procBoundary0to1
    {
        type            processor;
        value           uniform (0 0 0);
    }
}


// ************************************************************************* //
