/*--------------------------------*- C++ -*----------------------------------*\
| =========                 |                                                 |
| \\      /  F ield         | OpenFOAM: The Open Source CFD Toolbox           |
|  \\    /   O peration     | Version:  2412                                  |
|   \\  /    A nd           | Website:  www.openfoam.com                      |
|    \\/     M anipulation  |                                                 |
\*---------------------------------------------------------------------------*/
FoamFile
{
    version     2.0;
    format      ascii;
    arch        "LSB;label=32;scalar=64";
    class       volScalarField;
    location    "8.8e-06";
    object      T;
}
// * * * * * * * * * * * * * * * * * * * * * * * * * * * * * * * * * * * * * //

dimensions      [0 0 0 0 0 0 0];

internalField   nonuniform List<scalar> 
84
(
200.061
191.086
197.961
200.022
190.88
199.319
200.047
190.896
199.386
200.047
190.871
199.408
200.047
190.846
199.429
200.047
190.821
199.45
200.047
190.796
199.471
200.047
190.771
199.491
200.047
190.747
199.511
200.047
190.722
199.53
200.047
190.697
199.548
200.048
190.675
199.568
203.376
203.233
203.145
200.038
199.998
199.921
200.032
199.995
199.924
200.033
199.988
199.997
199.824
200.033
199.988
200.007
199.875
200.033
199.988
200.004
199.916
200.033
199.988
200.004
199.917
200.032
199.988
200.003
199.922
200.032
199.989
199.997
199.992
199.85
200.032
199.989
199.996
200.006
199.874
200.032
199.989
199.996
200.007
199.857
200.033
199.989
200.004
199.908
)
;

boundaryField
{
    inlet
    {
        type            calculated;
        value           uniform 0;
    }
    outlet2
    {
        type            calculated;
        value           uniform 0;
    }
    outlet1
    {
        type            calculated;
        value           nonuniform List<scalar> 0();
    }
    wall
    {
        type            calculated;
        value           uniform 0;
    }
    symmetryBottom
    {
        type            symmetry;
    }
    symmetryZ0
    {
        type            symmetry;
    }
    symmetryZ05
    {
        type            symmetry;
    }
    procBoundary1to0
    {
        type            processor;
        value           uniform 0;
    }
}


// ************************************************************************* //
