/*--------------------------------*- C++ -*----------------------------------*\
| =========                 |                                                 |
| \\      /  F ield         | OpenFOAM: The Open Source CFD Toolbox           |
|  \\    /   O peration     | Version:  2412                                  |
|   \\  /    A nd           | Website:  www.openfoam.com                      |
|    \\/     M anipulation  |                                                 |
\*---------------------------------------------------------------------------*/
FoamFile
{
    version     2.0;
    format      ascii;
    arch        "LSB;label=32;scalar=64";
    class       volScalarField;
    location    "1.1e-06";
    object      E_dof0;
}
// * * * * * * * * * * * * * * * * * * * * * * * * * * * * * * * * * * * * * //

dimensions      [0 0 0 0 0 0 0];

internalField   nonuniform List<scalar> 
84
(
99.4307
92.428
92.545
92.5441
92.5444
92.5448
92.5451
92.6523
100.452
93.3976
93.5301
93.5441
93.5597
93.5758
93.5925
93.7005
100.331
93.3115
93.4295
93.4422
93.4563
93.4708
93.4858
93.5937
100.244
93.212
93.3416
93.353
93.3659
93.3792
93.487
100.153
93.1118
93.24
93.2497
93.261
93.2726
93.3804
100.049
93.0125
93.1391
93.1473
93.1569
93.1669
93.2746
99.9469
92.9154
93.0404
93.047
93.0551
93.0635
93.1711
99.8366
92.8261
92.9424
92.9477
92.9542
92.961
93.0686
99.7531
92.7379
92.8601
92.864
92.8694
92.9769
99.6232
92.6066
92.7267
92.7286
92.7318
92.8392
99.5209
92.513
92.6315
92.632
92.6336
92.7409
99.3139
92.4187
92.5308
92.5297
92.5298
92.5298
92.637
)
;

boundaryField
{
    inlet
    {
        type            calculated;
        value           nonuniform List<scalar> 0();
    }
    outlet2
    {
        type            calculated;
        value           uniform 99.4306;
    }
    outlet1
    {
        type            calculated;
        value           uniform 99.4306;
    }
    wall
    {
        type            calculated;
        value           uniform 99.4306;
    }
    symmetryBottom
    {
        type            symmetry;
    }
    symmetryZ0
    {
        type            symmetry;
    }
    symmetryZ05
    {
        type            symmetry;
    }
    procBoundary0to1
    {
        type            processor;
        value           uniform 99.4306;
    }
}


// ************************************************************************* //
