/*--------------------------------*- C++ -*----------------------------------*\
| =========                 |                                                 |
| \\      /  F ield         | OpenFOAM: The Open Source CFD Toolbox           |
|  \\    /   O peration     | Version:  2412                                  |
|   \\  /    A nd           | Website:  www.openfoam.com                      |
|    \\/     M anipulation  |                                                 |
\*---------------------------------------------------------------------------*/
FoamFile
{
    version     2.0;
    format      ascii;
    arch        "LSB;label=32;scalar=64";
    class       volVectorField;
    location    "1.1e-06";
    object      U;
}
// * * * * * * * * * * * * * * * * * * * * * * * * * * * * * * * * * * * * * //

dimensions      [0 0 0 0 0 0 0];

internalField   nonuniform List<vector> 
84
(
(2636.16 1.16513 1.2639e-15)
(2635.01 1.18664 -1.35667e-15)
(2635.04 1.204 -3.21709e-15)
(2635.04 1.22206 1.46394e-15)
(2635.04 1.24066 2.24523e-18)
(2635.03 1.25983 1.71831e-16)
(2635.03 1.27961 2.88708e-15)
(2635.05 1.27922 5.88047e-16)
(2636.53 -1.15963 1.13089e-15)
(2635.39 -1.18874 -1.24103e-15)
(2635.43 -1.20593 -3.8819e-15)
(2635.43 -1.22409 1.05082e-16)
(2635.44 -1.24279 -6.61389e-15)
(2635.44 -1.26207 7.50177e-16)
(2635.44 -1.28196 5.46097e-15)
(2635.46 -1.28143 1.40917e-15)
(2636.51 -1.13816 -5.45213e-15)
(2635.38 -1.2055 9.01612e-16)
(2635.41 -1.20587 1.95417e-15)
(2635.42 -1.22432 -5.32913e-17)
(2635.42 -1.24302 -3.16226e-17)
(2635.42 -1.26231 2.63917e-15)
(2635.42 -1.28221 -2.10805e-15)
(2635.44 -1.28168 -2.78071e-15)
(2636.5 -1.15923 -5.53548e-15)
(2635.36 -1.20697 2.73758e-15)
(2635.4 -1.22454 -6.49767e-17)
(2635.4 -1.24326 -6.15099e-15)
(2635.4 -1.26256 5.51189e-15)
(2635.4 -1.28246 1.36229e-15)
(2635.42 -1.28193 -2.08031e-15)
(2636.48 -1.17729 -3.06723e-15)
(2635.34 -1.20702 -1.25691e-15)
(2635.38 -1.22478 2.16617e-17)
(2635.38 -1.24351 5.57483e-18)
(2635.39 -1.26282 -1.88085e-15)
(2635.39 -1.28273 1.51914e-15)
(2635.41 -1.2822 4.12521e-15)
(2636.46 -1.11895 -1.88563e-15)
(2635.32 -1.14662 3.30678e-15)
(2635.36 -1.16357 -5.41366e-17)
(2635.36 -1.18142 4.05946e-15)
(2635.36 -1.19982 -3.4782e-15)
(2635.36 -1.2188 2.86766e-15)
(2635.38 -1.21831 -6.42646e-15)
(2636.43 -0.903099 -1.54088e-19)
(2635.28 -0.924679 3.31444e-15)
(2635.32 -0.938359 -5.34511e-17)
(2635.32 -0.952755 -9.97734e-18)
(2635.32 -0.967595 3.48451e-15)
(2635.32 -0.982905 6.4989e-16)
(2635.34 -0.982523 3.59037e-15)
(2636.4 -0.744549 2.35153e-18)
(2635.26 -0.793178 2.53515e-18)
(2635.3 -0.791361 -1.04138e-17)
(2635.3 -0.803763 -8.28073e-18)
(2635.3 -0.816306 8.00557e-19)
(2635.3 -0.82925 -3.21235e-19)
(2635.32 -0.82894 -2.64084e-15)
(2636.39 -0.693352 6.44625e-15)
(2635.24 -0.719211 -1.13158e-16)
(2635.28 -0.729961 -6.69388e-15)
(2635.28 -0.741327 -2.75921e-15)
(2635.28 -0.753049 3.47605e-15)
(2635.3 -0.752781 -1.88607e-18)
(2636.38 -0.707245 -2.39777e-15)
(2635.24 -0.72227 4.37605e-17)
(2635.28 -0.733116 -3.32782e-15)
(2635.28 -0.744455 3.32352e-15)
(2635.28 -0.756147 6.24851e-15)
(2635.3 -0.755887 3.64337e-19)
(2636.37 -0.784772 -3.17956e-15)
(2635.23 -0.81071 5.56955e-17)
(2635.27 -0.822746 1.23195e-18)
(2635.27 -0.835508 6.15124e-15)
(2635.27 -0.848668 6.75758e-15)
(2635.29 -0.848375 7.85634e-16)
(2636.35 -0.0226143 -4.79919e-17)
(2635.22 -0.981765 5.09852e-19)
(2635.26 -0.973379 -3.36148e-21)
(2635.26 -0.988534 4.02695e-15)
(2635.26 -1.00386 -6.82928e-17)
(2635.26 -1.01967 6.8452e-19)
(2635.28 -1.01934 -3.37289e-15)
)
;

boundaryField
{
    inlet
    {
        type            calculated;
        value           nonuniform List<vector> 0();
    }
    outlet2
    {
        type            calculated;
        value           uniform (0 0 0);
    }
    outlet1
    {
        type            calculated;
        value           uniform (0 0 0);
    }
    wall
    {
        type            calculated;
        value           uniform (0 0 0);
    }
    symmetryBottom
    {
        type            symmetry;
    }
    symmetryZ0
    {
        type            symmetry;
    }
    symmetryZ05
    {
        type            symmetry;
    }
    procBoundary0to1
    {
        type            processor;
        value           uniform (0 0 0);
    }
}


// ************************************************************************* //
