/*--------------------------------*- C++ -*----------------------------------*\
| =========                 |                                                 |
| \\      /  F ield         | OpenFOAM: The Open Source CFD Toolbox           |
|  \\    /   O peration     | Version:  2412                                  |
|   \\  /    A nd           | Website:  www.openfoam.com                      |
|    \\/     M anipulation  |                                                 |
\*---------------------------------------------------------------------------*/
FoamFile
{
    version     2.0;
    format      ascii;
    arch        "LSB;label=32;scalar=64";
    class       volVectorField;
    location    "9.2e-06";
    object      rhoU_dof0;
}
// * * * * * * * * * * * * * * * * * * * * * * * * * * * * * * * * * * * * * //

dimensions      [0 0 0 0 0 0 0];

internalField   nonuniform List<vector> 
84
(
(0.088275 1.89714e-07 -3.64853e-21)
(0.00592087 -4.48992e-07 2.51969e-20)
(0.0131157 1.26162e-07 -1.23368e-19)
(0.0883048 -0.000259749 -3.86234e-21)
(0.00598261 -2.83582e-05 2.65695e-20)
(0.0126104 -4.61271e-05 -1.29215e-19)
(0.088323 -0.000259803 5.07558e-21)
(0.00597788 -2.83914e-05 -3.48551e-20)
(0.0126755 -4.58997e-05 1.68614e-19)
(0.0883237 -0.000259813 -6.62786e-21)
(0.00597059 -2.83687e-05 4.55223e-20)
(0.0127411 -4.61186e-05 -2.22238e-19)
(0.0883244 -0.000259816 -1.1767e-20)
(0.00596332 -2.83445e-05 8.01352e-20)
(0.0128067 -4.63419e-05 -3.81908e-19)
(0.0883251 -0.000259818 6.44466e-21)
(0.00595608 -2.83204e-05 -4.39399e-20)
(0.0128719 -4.65627e-05 2.11884e-19)
(0.0883258 -0.00025982 -8.63557e-21)
(0.00594886 -2.82965e-05 5.9213e-20)
(0.0129367 -4.67822e-05 -2.85477e-19)
(0.0883265 -0.000259822 -1.00222e-20)
(0.00594168 -2.82726e-05 6.86701e-20)
(0.0130012 -4.70006e-05 -3.31958e-19)
(0.0883272 -0.000259824 3.72865e-21)
(0.00593452 -2.82489e-05 -2.54551e-20)
(0.0130653 -4.72178e-05 1.21693e-19)
(0.0883278 -0.000259827 -8.5279e-21)
(0.0059274 -2.82252e-05 5.90927e-20)
(0.013129 -4.74337e-05 -2.90664e-19)
(0.0883285 -0.000259829 -2.20922e-20)
(0.00592027 -2.82014e-05 1.52302e-19)
(0.0131924 -4.76485e-05 -7.41222e-19)
(0.0883296 -0.000260058 7.36345e-24)
(0.0059131 -2.77805e-05 -1.42629e-22)
(0.0132554 -4.75576e-05 2.12612e-21)
(0.0440709 -3.04987e-06 -2.14542e-21)
(0.0414154 -2.89567e-06 1.92231e-19)
(0.0394123 -2.78785e-06 -2.3474e-20)
(0.0471906 -0.000165214 -1.59594e-21)
(0.0442461 -0.00015784 1.94214e-19)
(0.0420977 -0.000149544 -2.74132e-20)
(0.0468353 -0.000166952 -1.12094e-20)
(0.0439229 -0.000159374 -6.59473e-20)
(0.0418293 -0.00015298 -2.76845e-19)
(0.0464344 -0.000165619 2.17488e-20)
(0.0434474 -0.000156975 -3.67868e-21)
(0.0440579 -0.000175335 -2.77708e-20)
(0.0373861 4.83877e-05 3.75388e-19)
(0.0460325 -0.000164199 -5.09418e-20)
(0.0430983 -0.000156328 2.10023e-21)
(0.0433966 -0.000160161 -2.70335e-20)
(0.0410828 -0.000147221 3.31646e-19)
(0.0456343 -0.00016281 -7.23082e-21)
(0.0427387 -0.000155069 -1.90399e-19)
(0.0430228 -0.000158491 -7.10875e-21)
(0.0407854 -0.000149573 2.24914e-19)
(0.0452395 -0.000161434 2.74921e-20)
(0.0423819 -0.000153803 -3.71827e-21)
(0.0426568 -0.000157169 -1.69499e-21)
(0.0404411 -0.000148385 -1.52003e-22)
(0.0448479 -0.000160069 4.83715e-20)
(0.042028 -0.000152549 -2.08266e-19)
(0.0422932 -0.000155791 1.99228e-19)
(0.0401155 -0.000148768 1.05098e-21)
(0.0444596 -0.000158714 9.54587e-21)
(0.0416798 -0.000151342 -2.59944e-19)
(0.0418383 -0.000153382 -2.74148e-19)
(0.0420769 -0.000170707 1.63458e-19)
(0.0379394 4.73672e-05 1.79848e-18)
(0.0440745 -0.000157371 5.06523e-20)
(0.0413315 -0.000150085 -2.92639e-19)
(0.041489 -0.00015274 1.77894e-19)
(0.0415847 -0.000155659 4.27232e-19)
(0.0394201 -0.000145361 2.94225e-19)
(0.0436926 -0.000156039 7.45755e-20)
(0.0409863 -0.000148857 -4.52972e-21)
(0.0411367 -0.000151531 4.0224e-23)
(0.0412218 -0.000152982 1.92904e-20)
(0.0391303 -0.000161602 -2.38158e-19)
(0.0433141 -0.000154683 -2.14119e-20)
(0.0406417 -0.000147562 2.83774e-19)
(0.0408708 -0.000149831 1.31494e-20)
(0.03881 -0.000160454 -4.59365e-19)
)
;

boundaryField
{
    inlet
    {
        type            calculated;
        value           uniform (0.0741049 0 0);
    }
    outlet2
    {
        type            calculated;
        value           uniform (0.0741049 0 0);
    }
    outlet1
    {
        type            calculated;
        value           nonuniform List<vector> 0();
    }
    wall
    {
        type            calculated;
        value           uniform (0.0741049 0 0);
    }
    symmetryBottom
    {
        type            symmetry;
    }
    symmetryZ0
    {
        type            symmetry;
    }
    symmetryZ05
    {
        type            symmetry;
    }
    procBoundary1to0
    {
        type            processor;
        value           uniform (0.0741049 0 0);
    }
}


// ************************************************************************* //
