/*--------------------------------*- C++ -*----------------------------------*\
| =========                 |                                                 |
| \\      /  F ield         | OpenFOAM: The Open Source CFD Toolbox           |
|  \\    /   O peration     | Version:  2412                                  |
|   \\  /    A nd           | Website:  www.openfoam.com                      |
|    \\/     M anipulation  |                                                 |
\*---------------------------------------------------------------------------*/
FoamFile
{
    version     2.0;
    format      ascii;
    arch        "LSB;label=32;scalar=64";
    class       volScalarField;
    location    "8.9e-06";
    object      E;
}
// * * * * * * * * * * * * * * * * * * * * * * * * * * * * * * * * * * * * * //

dimensions      [0 0 0 0 0 0 0];

internalField   nonuniform List<scalar> 
84
(
101.984
53.2649
56.7511
56.6018
56.625
56.645
56.6155
57.2826
108.914
56.9737
60.7499
60.6521
60.7401
60.8264
60.8683
61.571
107.519
57.039
60.2514
60.1955
60.2744
60.3541
60.3889
61.0874
106.376
56.1934
59.8383
59.7332
59.8101
59.8351
60.5291
106.436
55.6396
59.3174
59.2018
59.2701
59.2855
59.9749
105.549
55.1576
58.7979
58.6753
58.7348
58.7408
59.4258
104.655
54.6823
58.2826
58.1534
58.2043
58.2012
58.8816
103.502
54.4278
57.7519
57.6371
57.6785
57.6664
58.3424
102.514
53.791
57.2898
57.1515
57.1367
57.8081
102.065
53.2882
56.7816
56.6351
56.6116
57.2786
101.135
52.8253
56.2761
56.1234
56.0912
56.7539
99.3869
52.4801
55.7651
55.6126
55.6225
55.5758
56.2343
)
;

boundaryField
{
    inlet
    {
        type            calculated;
        value           nonuniform List<scalar> 0();
    }
    outlet2
    {
        type            calculated;
        value           uniform 0;
    }
    outlet1
    {
        type            calculated;
        value           uniform 0;
    }
    wall
    {
        type            calculated;
        value           uniform 0;
    }
    symmetryBottom
    {
        type            symmetry;
    }
    symmetryZ0
    {
        type            symmetry;
    }
    symmetryZ05
    {
        type            symmetry;
    }
    procBoundary0to1
    {
        type            processor;
        value           uniform 0;
    }
}


// ************************************************************************* //
