/*--------------------------------*- C++ -*----------------------------------*\
| =========                 |                                                 |
| \\      /  F ield         | OpenFOAM: The Open Source CFD Toolbox           |
|  \\    /   O peration     | Version:  2412                                  |
|   \\  /    A nd           | Website:  www.openfoam.com                      |
|    \\/     M anipulation  |                                                 |
\*---------------------------------------------------------------------------*/
FoamFile
{
    version     2.0;
    format      ascii;
    arch        "LSB;label=32;scalar=64";
    class       volScalarField;
    location    "5e-07";
    object      rho;
}
// * * * * * * * * * * * * * * * * * * * * * * * * * * * * * * * * * * * * * //

dimensions      [0 0 0 0 0 0 0];

internalField   nonuniform List<scalar> 
84
(
2.81182e-05
2.72114e-05
2.72174e-05
2.72174e-05
2.72175e-05
2.72175e-05
2.72176e-05
2.72316e-05
2.82466e-05
2.73382e-05
2.73461e-05
2.73481e-05
2.73502e-05
2.73523e-05
2.73544e-05
2.73685e-05
2.82326e-05
2.73257e-05
2.7333e-05
2.73347e-05
2.73366e-05
2.73385e-05
2.73404e-05
2.73545e-05
2.82213e-05
2.73138e-05
2.73214e-05
2.7323e-05
2.73247e-05
2.73264e-05
2.73405e-05
2.82088e-05
2.73006e-05
2.7308e-05
2.73094e-05
2.73109e-05
2.73124e-05
2.73265e-05
2.81955e-05
2.72875e-05
2.72946e-05
2.72959e-05
2.72971e-05
2.72984e-05
2.73125e-05
2.81822e-05
2.72743e-05
2.72813e-05
2.72823e-05
2.72834e-05
2.72845e-05
2.72985e-05
2.81685e-05
2.72615e-05
2.7268e-05
2.72688e-05
2.72696e-05
2.72705e-05
2.72845e-05
2.8156e-05
2.72486e-05
2.72552e-05
2.72559e-05
2.72565e-05
2.72705e-05
2.8143e-05
2.72354e-05
2.72418e-05
2.72422e-05
2.72426e-05
2.72567e-05
2.81294e-05
2.7222e-05
2.72282e-05
2.72284e-05
2.72287e-05
2.72427e-05
2.81025e-05
2.72089e-05
2.72147e-05
2.72147e-05
2.72147e-05
2.72147e-05
2.72287e-05
)
;

boundaryField
{
    inlet
    {
        type            calculated;
        value           nonuniform List<scalar> 0();
    }
    outlet2
    {
        type            calculated;
        value           uniform 0;
    }
    outlet1
    {
        type            calculated;
        value           uniform 0;
    }
    wall
    {
        type            calculated;
        value           uniform 0;
    }
    symmetryBottom
    {
        type            symmetry;
    }
    symmetryZ0
    {
        type            symmetry;
    }
    symmetryZ05
    {
        type            symmetry;
    }
    procBoundary0to1
    {
        type            processor;
        value           uniform 0;
    }
}


// ************************************************************************* //
