/*--------------------------------*- C++ -*----------------------------------*\
| =========                 |                                                 |
| \\      /  F ield         | OpenFOAM: The Open Source CFD Toolbox           |
|  \\    /   O peration     | Version:  2412                                  |
|   \\  /    A nd           | Website:  www.openfoam.com                      |
|    \\/     M anipulation  |                                                 |
\*---------------------------------------------------------------------------*/
FoamFile
{
    version     2.0;
    format      ascii;
    arch        "LSB;label=32;scalar=64";
    class       volVectorField;
    location    "5e-07";
    object      U;
}
// * * * * * * * * * * * * * * * * * * * * * * * * * * * * * * * * * * * * * //

dimensions      [0 0 0 0 0 0 0];

internalField   nonuniform List<vector> 
84
(
(2636.29 0.53162 5.88573e-16)
(2635.77 0.541576 -6.51846e-16)
(2635.78 0.549572 -1.44403e-15)
(2635.77 0.557843 6.94848e-16)
(2635.77 0.566366 1.21203e-17)
(2635.77 0.575154 7.68902e-17)
(2635.77 0.58422 1.31452e-15)
(2635.78 0.584125 2.85374e-16)
(2636.46 -0.527291 4.81014e-16)
(2635.94 -0.540075 -5.49216e-16)
(2635.95 -0.548018 -1.75037e-15)
(2635.95 -0.556266 2.99533e-17)
(2635.95 -0.564765 -2.88914e-15)
(2635.96 -0.573528 3.02717e-16)
(2635.96 -0.582568 2.48079e-15)
(2635.97 -0.582424 6.55465e-16)
(2636.45 -0.523512 -2.53524e-15)
(2635.94 -0.542324 4.13317e-16)
(2635.94 -0.548104 8.54285e-16)
(2635.95 -0.556364 -1.53867e-17)
(2635.95 -0.564866 -1.08121e-17)
(2635.95 -0.573633 1.20506e-15)
(2635.95 -0.582675 -9.62716e-16)
(2635.96 -0.582531 -1.20596e-15)
(2636.45 -0.531835 -2.59325e-15)
(2635.93 -0.548284 1.17678e-15)
(2635.94 -0.556462 -1.72219e-17)
(2635.94 -0.564967 -2.76375e-15)
(2635.94 -0.573737 2.44515e-15)
(2635.94 -0.582783 6.36605e-16)
(2635.95 -0.582639 -9.25583e-16)
(2636.44 -0.535274 -1.43941e-15)
(2635.92 -0.548354 -6.04184e-16)
(2635.93 -0.556546 4.15107e-18)
(2635.93 -0.565055 7.42879e-19)
(2635.93 -0.573828 -7.83088e-16)
(2635.93 -0.582877 7.5646e-16)
(2635.94 -0.582733 1.88695e-15)
(2636.43 -0.507743 -9.11737e-16)
(2635.91 -0.519973 1.4705e-15)
(2635.92 -0.527751 -9.59425e-18)
(2635.92 -0.535828 1.82045e-15)
(2635.92 -0.544156 -1.59589e-15)
(2635.92 -0.552747 1.29827e-15)
(2635.93 -0.552613 -2.91373e-15)
(2636.42 -0.409876 -2.90124e-20)
(2635.9 -0.419423 1.409e-15)
(2635.9 -0.425702 -9.71236e-18)
(2635.9 -0.432218 -4.68876e-18)
(2635.9 -0.438938 1.59002e-15)
(2635.9 -0.445869 2.53086e-16)
(2635.91 -0.445767 1.62429e-15)
(2636.4 -0.342536 -2.17953e-18)
(2635.89 -0.355127 -6.08264e-19)
(2635.89 -0.35871 -4.64758e-18)
(2635.89 -0.364213 -2.02792e-18)
(2635.89 -0.36988 1.06119e-18)
(2635.89 -0.375726 -1.03428e-18)
(2635.9 -0.375646 -1.1918e-15)
(2636.4 -0.317814 2.87424e-15)
(2635.88 -0.326654 -2.01e-17)
(2635.89 -0.331623 -3.02065e-15)
(2635.89 -0.336782 -1.2442e-15)
(2635.89 -0.342104 1.45927e-15)
(2635.89 -0.342035 -8.40401e-19)
(2636.39 -0.322449 -1.17153e-15)
(2635.88 -0.32922 8.26848e-18)
(2635.88 -0.334221 -1.51329e-15)
(2635.88 -0.339404 1.54515e-15)
(2635.88 -0.344751 2.83846e-15)
(2635.89 -0.344685 4.43688e-20)
(2636.39 -0.36009 -1.47414e-15)
(2635.87 -0.368887 9.94735e-18)
(2635.88 -0.374491 4.92751e-19)
(2635.88 -0.380306 2.80384e-15)
(2635.88 -0.386304 3.0996e-15)
(2635.89 -0.38623 3.78471e-16)
(2636.38 -0.00423294 -9.06932e-18)
(2635.87 -0.440804 3.11546e-20)
(2635.87 -0.443341 -5.09989e-23)
(2635.87 -0.450137 1.82548e-15)
(2635.87 -0.457128 -1.26568e-17)
(2635.87 -0.464338 4.38562e-20)
(2635.88 -0.46426 -1.40668e-15)
)
;

boundaryField
{
    inlet
    {
        type            calculated;
        value           nonuniform List<vector> 0();
    }
    outlet2
    {
        type            calculated;
        value           uniform (0 0 0);
    }
    outlet1
    {
        type            calculated;
        value           uniform (0 0 0);
    }
    wall
    {
        type            calculated;
        value           uniform (0 0 0);
    }
    symmetryBottom
    {
        type            symmetry;
    }
    symmetryZ0
    {
        type            symmetry;
    }
    symmetryZ05
    {
        type            symmetry;
    }
    procBoundary0to1
    {
        type            processor;
        value           uniform (0 0 0);
    }
}


// ************************************************************************* //
