/*--------------------------------*- C++ -*----------------------------------*\
| =========                 |                                                 |
| \\      /  F ield         | OpenFOAM: The Open Source CFD Toolbox           |
|  \\    /   O peration     | Version:  2412                                  |
|   \\  /    A nd           | Website:  www.openfoam.com                      |
|    \\/     M anipulation  |                                                 |
\*---------------------------------------------------------------------------*/
FoamFile
{
    version     2.0;
    format      ascii;
    arch        "LSB;label=32;scalar=64";
    class       volScalarField;
    location    "6.7e-06";
    object      rho;
}
// * * * * * * * * * * * * * * * * * * * * * * * * * * * * * * * * * * * * * //

dimensions      [0 0 0 0 0 0 0];

internalField   nonuniform List<scalar> 
84
(
2.81111e-05
4.94474e-06
1.05132e-05
2.81215e-05
4.9521e-06
1.05205e-05
2.81189e-05
4.95118e-06
1.05191e-05
2.81189e-05
4.95118e-06
1.05191e-05
2.81189e-05
4.95118e-06
1.05191e-05
2.81189e-05
4.95118e-06
1.05191e-05
2.81189e-05
4.95118e-06
1.05191e-05
2.81189e-05
4.95118e-06
1.05191e-05
2.81189e-05
4.95118e-06
1.05191e-05
2.81189e-05
4.95118e-06
1.05191e-05
2.81189e-05
4.95116e-06
1.05191e-05
2.8119e-05
4.94945e-06
1.05183e-05
1.93612e-05
1.82067e-05
1.84208e-05
2.0596e-05
1.9296e-05
1.95285e-05
2.04642e-05
1.91796e-05
1.94087e-05
2.0333e-05
1.90639e-05
1.91776e-05
1.8152e-05
2.02024e-05
1.89486e-05
1.90593e-05
1.91836e-05
2.00718e-05
1.88334e-05
1.8941e-05
1.90648e-05
1.99415e-05
1.87186e-05
1.88231e-05
1.89464e-05
1.9814e-05
1.86061e-05
1.87076e-05
1.88295e-05
1.9679e-05
1.84873e-05
1.85855e-05
1.85855e-05
1.82169e-05
1.95653e-05
1.83865e-05
1.84823e-05
1.84808e-05
1.86066e-05
1.94342e-05
1.82709e-05
1.83635e-05
1.83608e-05
1.85263e-05
1.93113e-05
1.81621e-05
1.82521e-05
1.83724e-05
)
;

boundaryField
{
    inlet
    {
        type            calculated;
        value           uniform 0;
    }
    outlet2
    {
        type            calculated;
        value           uniform 0;
    }
    outlet1
    {
        type            calculated;
        value           nonuniform List<scalar> 0();
    }
    wall
    {
        type            calculated;
        value           uniform 0;
    }
    symmetryBottom
    {
        type            symmetry;
    }
    symmetryZ0
    {
        type            symmetry;
    }
    symmetryZ05
    {
        type            symmetry;
    }
    procBoundary1to0
    {
        type            processor;
        value           uniform 0;
    }
}


// ************************************************************************* //
