/*--------------------------------*- C++ -*----------------------------------*\
| =========                 |                                                 |
| \\      /  F ield         | OpenFOAM: The Open Source CFD Toolbox           |
|  \\    /   O peration     | Version:  2412                                  |
|   \\  /    A nd           | Website:  www.openfoam.com                      |
|    \\/     M anipulation  |                                                 |
\*---------------------------------------------------------------------------*/
FoamFile
{
    version     2.0;
    format      ascii;
    arch        "LSB;label=32;scalar=64";
    class       volVectorField;
    location    "6.7e-06";
    object      rhoU;
}
// * * * * * * * * * * * * * * * * * * * * * * * * * * * * * * * * * * * * * //

dimensions      [0 0 0 0 0 0 0];

internalField   nonuniform List<vector> 
84
(
(0.0741118 -6.82482e-07 0)
(0.0127571 -6.74473e-07 0)
(0.027584 -5.71578e-07 -1.18675e-19)
(0.0741392 -0.000144453 0)
(0.0127763 -4.06132e-05 0)
(0.0276032 -6.93807e-05 -1.15544e-19)
(0.0741323 -0.000143794 0)
(0.0127739 -4.0398e-05 0)
(0.0275996 -6.90391e-05 1.57687e-19)
(0.0741323 -0.000143794 0)
(0.0127739 -4.03979e-05 0)
(0.0275996 -6.9039e-05 -2.13283e-19)
(0.0741323 -0.000143794 0)
(0.0127739 -4.03979e-05 0)
(0.0275996 -6.9039e-05 -3.24026e-19)
(0.0741323 -0.000143794 0)
(0.0127739 -4.03979e-05 0)
(0.0275996 -6.9039e-05 2.09996e-19)
(0.0741323 -0.000143794 0)
(0.0127739 -4.03979e-05 0)
(0.0275996 -6.9039e-05 -2.3826e-19)
(0.0741323 -0.000143794 0)
(0.0127739 -4.03979e-05 0)
(0.0275996 -6.9039e-05 -2.70948e-19)
(0.0741323 -0.000143794 0)
(0.0127739 -4.03979e-05 0)
(0.0275996 -6.9039e-05 1.1785e-19)
(0.0741323 -0.000143794 0)
(0.0127739 -4.03979e-05 0)
(0.0275996 -6.9039e-05 -2.38357e-19)
(0.0741323 -0.000143794 0)
(0.0127739 -4.03935e-05 0)
(0.0275995 -6.90369e-05 -6.38004e-19)
(0.0741324 -0.000143812 0)
(0.0127694 -3.99567e-05 0)
(0.0275975 -6.88342e-05 0)
(0.050916 0.000136986 1.66806e-20)
(0.0478478 0.000120756 1.47768e-19)
(0.048417 0.000122797 1.55678e-20)
(0.0542122 -0.000140651 1.6078e-20)
(0.0507537 -0.00013386 1.62043e-19)
(0.0513723 -0.000135187 -4.80497e-21)
(0.0538631 -0.000139809 -2.24431e-20)
(0.0504456 -0.000133075 -7.69669e-20)
(0.0510551 -0.00013422 -2.46801e-19)
(0.0535158 -0.000138942 2.91348e-20)
(0.0501394 -0.000132296 -4.74115e-21)
(0.0504434 -0.000134933 3.71303e-22)
(0.0477283 1.1175e-05 2.09226e-19)
(0.0531699 -0.000138128 -3.18682e-20)
(0.0498345 -0.000131562 1.22628e-21)
(0.0501303 -0.00013417 -2.45817e-21)
(0.0504594 -0.000134807 2.12019e-19)
(0.0528234 -0.000132187 -2.86555e-20)
(0.0495291 -0.000126368 -1.54962e-19)
(0.0498167 -0.000128865 1.27961e-20)
(0.0501444 -0.00012948 1.71705e-19)
(0.0524757 -0.000103863 3.34356e-20)
(0.0492224 -0.000101299 -3.88984e-21)
(0.0495018 -0.000103119 2.36543e-22)
(0.0498281 -0.000103622 -1.36387e-21)
(0.0521366 -8.66882e-05 4.06176e-20)
(0.0489232 -8.6052e-05 -1.55414e-19)
(0.0491948 -8.74883e-05 1.75025e-19)
(0.0495173 -8.77939e-05 2.71006e-21)
(0.0517775 -7.53561e-05 -1.61919e-20)
(0.0486053 -7.5989e-05 -2.11983e-19)
(0.0488684 -7.71234e-05 -2.04397e-19)
(0.0488679 -7.82601e-05 2.32878e-19)
(0.0478985 1.17562e-05 1.31868e-18)
(0.0514813 -7.27645e-05 3.50313e-20)
(0.0483475 -7.36907e-05 -2.13672e-19)
(0.0486035 -7.47126e-05 1.7346e-19)
(0.0485993 -7.57711e-05 2.88682e-19)
(0.0489325 -7.68003e-05 2.00116e-19)
(0.0511344 -8.37184e-05 8.85056e-20)
(0.0480409 -8.32989e-05 -6.70926e-21)
(0.0482888 -8.45917e-05 6.44356e-22)
(0.0482814 -8.59178e-05 -5.19072e-22)
(0.0487193 -9.40734e-05 -2.17975e-19)
(0.0508099 -0.000101706 1.68403e-22)
(0.0477538 -9.90775e-05 2.14759e-19)
(0.0479944 -0.000100777 -2.46761e-20)
(0.0483128 -0.000101215 -2.92315e-19)
)
;

boundaryField
{
    inlet
    {
        type            calculated;
        value           uniform (0 0 0);
    }
    outlet2
    {
        type            calculated;
        value           uniform (0 0 0);
    }
    outlet1
    {
        type            calculated;
        value           nonuniform List<vector> 0();
    }
    wall
    {
        type            calculated;
        value           uniform (0 0 0);
    }
    symmetryBottom
    {
        type            symmetry;
    }
    symmetryZ0
    {
        type            symmetry;
    }
    symmetryZ05
    {
        type            symmetry;
    }
    procBoundary1to0
    {
        type            processor;
        value           uniform (0 0 0);
    }
}


// ************************************************************************* //
