/*--------------------------------*- C++ -*----------------------------------*\
| =========                 |                                                 |
| \\      /  F ield         | OpenFOAM: The Open Source CFD Toolbox           |
|  \\    /   O peration     | Version:  2412                                  |
|   \\  /    A nd           | Website:  www.openfoam.com                      |
|    \\/     M anipulation  |                                                 |
\*---------------------------------------------------------------------------*/
FoamFile
{
    version     2.0;
    format      ascii;
    arch        "LSB;label=32;scalar=64";
    class       volVectorField;
    location    "9.9e-06";
    object      U;
}
// * * * * * * * * * * * * * * * * * * * * * * * * * * * * * * * * * * * * * //

dimensions      [0 0 0 0 0 0 0];

internalField   nonuniform List<vector> 
84
(
(2641.15 0.00615059 -1.26703e-16)
(2418.72 -0.402334 2.31744e-14)
(2598.12 0.0518425 -2.84834e-14)
(2641.14 -8.27325 -1.34005e-16)
(2424.31 -16.1967 2.38615e-14)
(2594.7 -10.2451 -3.14074e-14)
(2641.14 -8.27327 1.75998e-16)
(2423.71 -16.2628 -3.13449e-14)
(2595.11 -10.1098 4.06365e-14)
(2641.14 -8.27357 -2.29859e-16)
(2423.03 -16.282 4.11092e-14)
(2595.54 -10.1061 -5.34365e-14)
(2641.14 -8.27359 -4.0747e-16)
(2422.34 -16.2999 7.23555e-14)
(2595.97 -10.104 -9.10691e-14)
(2641.14 -8.2736 2.23193e-16)
(2421.65 -16.3179 -3.98272e-14)
(2596.39 -10.1016 5.001e-14)
(2641.14 -8.27361 -2.9936e-16)
(2420.96 -16.3359 5.38322e-14)
(2596.8 -10.0992 -6.71185e-14)
(2641.14 -8.27362 -3.47389e-16)
(2420.27 -16.3539 6.26411e-14)
(2597.2 -10.0968 -7.84213e-14)
(2641.15 -8.27363 1.29135e-16)
(2419.58 -16.372 -2.32432e-14)
(2597.6 -10.0945 2.84105e-14)
(2641.15 -8.27364 -2.96142e-16)
(2418.88 -16.39 5.42975e-14)
(2597.98 -10.0923 -6.72521e-14)
(2641.15 -8.27366 -7.66457e-16)
(2418.19 -16.4081 1.4015e-13)
(2598.36 -10.0901 -1.70688e-13)
(2641.15 -8.28112 3.1121e-19)
(2417.49 -16.0789 -1.5941e-16)
(2598.73 -10.0187 5.96541e-16)
(2628.09 -0.210647 -1.78398e-16)
(2625.97 -0.212303 1.33551e-14)
(2623.46 -0.214768 -2.27306e-15)
(2629.74 -9.89393 -1.34692e-16)
(2627.57 -10.0777 1.25236e-14)
(2625.08 -10.024 -2.43682e-15)
(2629.63 -10.0866 -6.99324e-16)
(2627.45 -10.2612 -4.37072e-15)
(2625.03 -10.3583 -1.81588e-14)
(2629.48 -10.0926 1.38723e-15)
(2627.13 -10.2099 -2.41091e-16)
(2627.81 -11.3285 -1.97573e-15)
(2622.24 4.12356 3.00057e-14)
(2629.33 -10.0926 -3.14525e-15)
(2627.01 -10.2564 1.61371e-16)
(2627.41 -10.442 -1.92235e-15)
(2624.65 -10.0977 2.34973e-14)
(2629.18 -10.094 -4.3543e-16)
(2626.86 -10.2592 -1.27815e-14)
(2627.26 -10.4187 -4.91934e-16)
(2624.54 -10.3585 1.6122e-14)
(2629.02 -10.0955 1.80646e-15)
(2626.72 -10.2606 -2.78869e-16)
(2627.11 -10.4197 -1.0548e-16)
(2624.4 -10.3639 -7.78576e-19)
(2628.87 -10.097 3.23979e-15)
(2626.58 -10.2622 -1.42639e-14)
(2626.97 -10.4152 1.36339e-14)
(2624.28 -10.4988 8.05373e-17)
(2628.72 -10.0984 6.77248e-16)
(2626.44 -10.266 -1.77635e-14)
(2626.65 -10.3572 -1.87004e-14)
(2626.94 -11.553 1.05443e-14)
(2622.97 3.95614 1.3604e-13)
(2628.57 -10.1 3.46936e-15)
(2626.3 -10.2656 -2.03242e-14)
(2626.51 -10.4076 1.22795e-14)
(2626.67 -10.5857 2.91563e-14)
(2623.96 -10.403 2.15732e-14)
(2628.41 -10.1015 5.0706e-15)
(2626.16 -10.2668 -3.591e-16)
(2626.37 -10.4144 -2.4568e-18)
(2626.51 -10.4753 1.43597e-15)
(2623.87 -11.8055 -1.71179e-14)
(2628.26 -10.1017 -1.51779e-15)
(2626.01 -10.2644 1.99223e-14)
(2626.38 -10.3539 9.9347e-16)
(2623.74 -11.8476 -3.41783e-14)
)
;

boundaryField
{
    inlet
    {
        type            calculated;
        value           uniform (0 0 0);
    }
    outlet2
    {
        type            calculated;
        value           uniform (0 0 0);
    }
    outlet1
    {
        type            calculated;
        value           nonuniform List<vector> 0();
    }
    wall
    {
        type            calculated;
        value           uniform (0 0 0);
    }
    symmetryBottom
    {
        type            symmetry;
    }
    symmetryZ0
    {
        type            symmetry;
    }
    symmetryZ05
    {
        type            symmetry;
    }
    procBoundary1to0
    {
        type            processor;
        value           uniform (0 0 0);
    }
}


// ************************************************************************* //
