/*--------------------------------*- C++ -*----------------------------------*\
| =========                 |                                                 |
| \\      /  F ield         | OpenFOAM: The Open Source CFD Toolbox           |
|  \\    /   O peration     | Version:  2412                                  |
|   \\  /    A nd           | Website:  www.openfoam.com                      |
|    \\/     M anipulation  |                                                 |
\*---------------------------------------------------------------------------*/
FoamFile
{
    version     2.0;
    format      ascii;
    arch        "LSB;label=32;scalar=64";
    class       volScalarField;
    location    "1.6e-06";
    object      E_dof0;
}
// * * * * * * * * * * * * * * * * * * * * * * * * * * * * * * * * * * * * * //

dimensions      [0 0 0 0 0 0 0];

internalField   nonuniform List<scalar> 
84
(
99.3541
89.33
89.5812
89.5778
89.5784
89.5789
89.5795
89.7317
100.839
90.6942
90.9691
90.9867
91.0089
91.0317
91.0553
91.2093
100.652
90.5842
90.8264
90.8426
90.8626
90.8831
90.9043
91.0581
100.526
90.4325
90.7027
90.7165
90.7348
90.7536
90.9072
100.404
90.2908
90.5591
90.5706
90.5866
90.603
90.7565
100.252
90.1506
90.4164
90.4257
90.4395
90.4536
90.6069
100.103
90.0136
90.2769
90.2841
90.2956
90.3074
90.4605
99.9357
89.8942
90.1384
90.1439
90.1532
90.1628
90.3157
99.8141
89.7632
90.022
90.0253
90.0329
90.1857
99.632
89.5794
89.8353
89.8357
89.8403
89.9929
99.4796
89.4473
89.7006
89.699
89.7014
89.8537
99.1802
89.3183
89.5588
89.5552
89.5553
89.5554
89.7076
)
;

boundaryField
{
    inlet
    {
        type            calculated;
        value           nonuniform List<scalar> 0();
    }
    outlet2
    {
        type            calculated;
        value           uniform 99.4306;
    }
    outlet1
    {
        type            calculated;
        value           uniform 99.4306;
    }
    wall
    {
        type            calculated;
        value           uniform 99.4306;
    }
    symmetryBottom
    {
        type            symmetry;
    }
    symmetryZ0
    {
        type            symmetry;
    }
    symmetryZ05
    {
        type            symmetry;
    }
    procBoundary0to1
    {
        type            processor;
        value           uniform 99.4306;
    }
}


// ************************************************************************* //
