/*--------------------------------*- C++ -*----------------------------------*\
| =========                 |                                                 |
| \\      /  F ield         | OpenFOAM: The Open Source CFD Toolbox           |
|  \\    /   O peration     | Version:  2412                                  |
|   \\  /    A nd           | Website:  www.openfoam.com                      |
|    \\/     M anipulation  |                                                 |
\*---------------------------------------------------------------------------*/
FoamFile
{
    version     2.0;
    format      ascii;
    arch        "LSB;label=32;scalar=64";
    class       volVectorField;
    location    "1.6e-06";
    object      rhoU_dof0;
}
// * * * * * * * * * * * * * * * * * * * * * * * * * * * * * * * * * * * * * //

dimensions      [0 0 0 0 0 0 0];

internalField   nonuniform List<vector> 
84
(
(0.0740512 4.74539e-05 5.02103e-20)
(0.0666209 4.35071e-05 -5.18665e-20)
(0.0668061 4.42601e-05 -1.16223e-19)
(0.0668036 4.49202e-05 5.36571e-20)
(0.0668041 4.56021e-05 -6.91697e-22)
(0.0668045 4.6305e-05 6.43865e-21)
(0.0668049 4.70299e-05 1.08719e-19)
(0.0669178 4.70884e-05 2.3329e-20)
(0.0751499 -4.80642e-05 4.89254e-20)
(0.0676304 -4.43942e-05 -4.78639e-20)
(0.0678331 -4.51581e-05 -1.43055e-19)
(0.0678462 -4.5847e-05 5.15474e-21)
(0.0678626 -4.65587e-05 -2.48993e-19)
(0.0678796 -4.72927e-05 3.22613e-20)
(0.067897 -4.80503e-05 2.056e-19)
(0.0680112 -4.81043e-05 5.07774e-20)
(0.0750109 -4.66552e-05 -2.23698e-19)
(0.0675487 -4.53581e-05 3.28729e-20)
(0.0677273 -4.50679e-05 7.27225e-20)
(0.0677394 -4.57844e-05 -2.60597e-21)
(0.0677542 -4.64937e-05 -1.42772e-21)
(0.0677694 -4.72257e-05 1.02139e-19)
(0.0677851 -4.79811e-05 -8.09191e-20)
(0.0678991 -4.80351e-05 -1.06891e-19)
(0.0749176 -4.75628e-05 -2.25928e-19)
(0.0674364 -4.49539e-05 1.0443e-19)
(0.0676356 -4.57223e-05 -3.30661e-21)
(0.0676458 -4.64288e-05 -2.2998e-19)
(0.0676594 -4.71587e-05 2.08579e-19)
(0.0676734 -4.7912e-05 4.77e-20)
(0.0677873 -4.7966e-05 -7.72684e-20)
(0.0748272 -4.85924e-05 -1.2284e-19)
(0.0673313 -4.48781e-05 -4.75901e-20)
(0.0675291 -4.56616e-05 1.1987e-21)
(0.0675377 -4.63661e-05 3.32213e-22)
(0.0675495 -4.70941e-05 -7.33788e-20)
(0.0675617 -4.78453e-05 5.52776e-20)
(0.0676755 -4.78993e-05 1.56046e-19)
(0.0747134 -4.61925e-05 -7.64111e-20)
(0.0672265 -4.26331e-05 1.24113e-19)
(0.0674225 -4.33809e-05 -3.06935e-21)
(0.0674294 -4.40524e-05 1.53754e-19)
(0.0674395 -4.47465e-05 -1.28297e-19)
(0.06745 -4.54628e-05 1.1142e-19)
(0.0675636 -4.55145e-05 -2.4048e-19)
(0.0745991 -3.72177e-05 -9.13482e-24)
(0.0671214 -3.43236e-05 1.24302e-19)
(0.0673155 -3.49246e-05 -3.05023e-21)
(0.0673207 -3.54643e-05 -3.47556e-22)
(0.0673292 -3.60221e-05 1.28003e-19)
(0.0673379 -3.65977e-05 2.23209e-20)
(0.0674514 -3.66399e-05 1.36079e-19)
(0.0744715 -3.02958e-05 3.23854e-22)
(0.0670292 -2.97435e-05 2.24394e-22)
(0.0672091 -2.94234e-05 -3.9529e-22)
(0.0672131 -2.99024e-05 -4.32551e-22)
(0.0672198 -3.03731e-05 -1.73276e-23)
(0.0672268 -3.08592e-05 5.62806e-23)
(0.0673401 -3.08952e-05 -9.91839e-20)
(0.0743653 -2.82557e-05 2.68137e-19)
(0.0669167 -2.65899e-05 -6.45963e-21)
(0.0671071 -2.70544e-05 -2.49824e-19)
(0.0671092 -2.7477e-05 -1.01013e-19)
(0.0671144 -2.79138e-05 1.29509e-19)
(0.0672277 -2.7947e-05 -7.12704e-23)
(0.0742667 -2.89062e-05 -9.59111e-20)
(0.0668145 -2.65824e-05 2.41396e-21)
(0.0670033 -2.70526e-05 -1.22958e-19)
(0.0670038 -2.74703e-05 1.27996e-19)
(0.0670074 -2.79022e-05 2.30151e-19)
(0.0671205 -2.79357e-05 2.13528e-23)
(0.0741452 -3.18535e-05 -1.30299e-19)
(0.0667087 -2.98402e-05 3.15583e-21)
(0.0668955 -3.03521e-05 3.8047e-23)
(0.0668943 -3.08222e-05 2.27856e-19)
(0.0668961 -3.1308e-05 2.48883e-19)
(0.0670091 -3.13456e-05 2.64933e-20)
(0.0739203 -1.35142e-06 -2.87188e-21)
(0.0666114 -3.6493e-05 4.42092e-23)
(0.0667886 -3.58291e-05 -4.73779e-25)
(0.066786 -3.63997e-05 1.50608e-19)
(0.0667861 -3.69631e-05 -3.7862e-21)
(0.0667862 -3.75446e-05 5.88254e-23)
(0.066899 -3.75907e-05 -1.29677e-19)
)
;

boundaryField
{
    inlet
    {
        type            calculated;
        value           nonuniform List<vector> 0();
    }
    outlet2
    {
        type            calculated;
        value           uniform (0.0741049 0 0);
    }
    outlet1
    {
        type            calculated;
        value           uniform (0.0741049 0 0);
    }
    wall
    {
        type            calculated;
        value           uniform (0.0741049 0 0);
    }
    symmetryBottom
    {
        type            symmetry;
    }
    symmetryZ0
    {
        type            symmetry;
    }
    symmetryZ05
    {
        type            symmetry;
    }
    procBoundary0to1
    {
        type            processor;
        value           uniform (0.0741049 0 0);
    }
}


// ************************************************************************* //
