/*--------------------------------*- C++ -*----------------------------------*\
| =========                 |                                                 |
| \\      /  F ield         | OpenFOAM: The Open Source CFD Toolbox           |
|  \\    /   O peration     | Version:  2412                                  |
|   \\  /    A nd           | Website:  www.openfoam.com                      |
|    \\/     M anipulation  |                                                 |
\*---------------------------------------------------------------------------*/
FoamFile
{
    version     2.0;
    format      ascii;
    arch        "LSB;label=32;scalar=64";
    class       volScalarField;
    location    "5.2e-06";
    object      E;
}
// * * * * * * * * * * * * * * * * * * * * * * * * * * * * * * * * * * * * * //

dimensions      [0 0 0 0 0 0 0];

internalField   nonuniform List<scalar> 
84
(
97.6199
68.5667
71.0379
70.903
70.9119
70.915
70.9184
71.3342
102.383
71.9933
74.6319
74.5456
74.6112
74.6725
74.7361
75.1686
101.528
71.9711
74.2189
74.1654
74.2225
74.2776
74.3346
74.7654
101.159
71.332
73.9252
73.83
73.8849
73.9352
74.3643
100.958
70.9531
73.5461
73.4448
73.4934
73.5373
73.9647
100.459
70.5931
73.1682
73.0616
73.1039
73.1413
73.5671
99.9697
70.2426
72.7987
72.687
72.7232
72.7544
73.1785
99.3038
70.086
72.4181
72.3224
72.3515
72.3768
72.7992
98.9095
69.607
72.1221
72.0014
72.0269
72.4476
98.4615
69.1568
71.6601
71.533
71.5512
71.9698
97.8999
68.8249
71.3005
71.1688
71.1809
71.5979
96.9708
68.5762
70.9302
70.803
70.8088
70.8095
71.2251
)
;

boundaryField
{
    inlet
    {
        type            calculated;
        value           nonuniform List<scalar> 0();
    }
    outlet2
    {
        type            calculated;
        value           uniform 0;
    }
    outlet1
    {
        type            calculated;
        value           uniform 0;
    }
    wall
    {
        type            calculated;
        value           uniform 0;
    }
    symmetryBottom
    {
        type            symmetry;
    }
    symmetryZ0
    {
        type            symmetry;
    }
    symmetryZ05
    {
        type            symmetry;
    }
    procBoundary0to1
    {
        type            processor;
        value           uniform 0;
    }
}


// ************************************************************************* //
