/*--------------------------------*- C++ -*----------------------------------*\
| =========                 |                                                 |
| \\      /  F ield         | OpenFOAM: The Open Source CFD Toolbox           |
|  \\    /   O peration     | Version:  2412                                  |
|   \\  /    A nd           | Website:  www.openfoam.com                      |
|    \\/     M anipulation  |                                                 |
\*---------------------------------------------------------------------------*/
FoamFile
{
    version     2.0;
    format      ascii;
    arch        "LSB;label=32;scalar=64";
    class       volVectorField;
    location    "5.2e-06";
    object      rhoU;
}
// * * * * * * * * * * * * * * * * * * * * * * * * * * * * * * * * * * * * * //

dimensions      [0 0 0 0 0 0 0];

internalField   nonuniform List<vector> 
84
(
(0.0727777 0.000148015 1.47286e-19)
(0.0512276 0.000106371 -1.47731e-19)
(0.0530503 0.000111603 -2.7251e-19)
(0.0529515 0.000113028 1.61774e-19)
(0.0529581 0.000114713 -1.81759e-20)
(0.0529605 0.00011644 1.97169e-20)
(0.0529631 0.00011822 2.60114e-19)
(0.0532717 0.000118744 3.8602e-20)
(0.0763015 -0.00015824 1.5316e-19)
(0.053767 -0.000115279 -1.46144e-19)
(0.0557128 -0.00012065 -3.44062e-19)
(0.0556501 -0.000122375 3.63867e-20)
(0.0556987 -0.00012435 -6.51518e-19)
(0.0557442 -0.000126381 1.38351e-19)
(0.0557913 -0.000128481 5.19914e-19)
(0.0561122 -0.000129015 1.05074e-19)
(0.0756694 -0.000144089 -6.19227e-19)
(0.0537487 -0.000126644 1.14686e-19)
(0.0554066 -0.000118829 2.00545e-19)
(0.0553678 -0.000121852 -1.96438e-20)
(0.0554102 -0.000123731 -8.04413e-21)
(0.0554511 -0.000125746 2.5567e-19)
(0.0554934 -0.000127825 -2.24956e-19)
(0.055813 -0.000128357 -2.4728e-19)
(0.0753955 -0.000148829 -6.01465e-19)
(0.0532758 -0.000116362 2.82243e-19)
(0.0551883 -0.000121362 -2.71808e-20)
(0.055119 -0.000123114 -5.80703e-19)
(0.0551596 -0.000125114 5.68623e-19)
(0.0551969 -0.000127172 1.00562e-19)
(0.0555153 -0.000127703 -2.26341e-19)
(0.0752452 -0.000158652 -3.7633e-19)
(0.0529946 -0.000115248 -1.01816e-19)
(0.0549069 -0.000120826 9.72375e-21)
(0.054833 -0.000122536 2.9772e-21)
(0.054869 -0.000124519 -2.14148e-19)
(0.0549015 -0.000126557 1.63906e-19)
(0.0552186 -0.000127086 3.62023e-19)
(0.0748729 -0.00015216 -2.27212e-19)
(0.0527255 -0.000110353 3.05043e-19)
(0.0546245 -0.000115753 -2.85303e-20)
(0.0545466 -0.000117412 3.69827e-19)
(0.0545779 -0.000119336 -3.35909e-19)
(0.0546057 -0.000121316 2.85484e-19)
(0.0549216 -0.000121825 -6.23843e-19)
(0.0744977 -0.000121931 -7.45356e-23)
(0.0524565 -8.85237e-05 2.91384e-19)
(0.0543409 -9.27572e-05 -2.77144e-20)
(0.0542591 -9.40874e-05 4.77316e-22)
(0.0542858 -9.56189e-05 3.04967e-19)
(0.0543088 -9.71947e-05 4.1179e-20)
(0.0546233 -9.76044e-05 3.02702e-19)
(0.0739919 -9.19501e-05 4.79128e-21)
(0.0523301 -8.43406e-05 3.46177e-21)
(0.0540489 -7.75855e-05 -1.47076e-21)
(0.0539786 -7.9759e-05 -3.64867e-21)
(0.0539999 -8.10039e-05 -7.6764e-22)
(0.0540183 -8.23501e-05 1.61997e-21)
(0.0543316 -8.2697e-05 -2.54841e-19)
(0.0736474 -8.71639e-05 7.9625e-19)
(0.0519329 -6.78038e-05 -6.64701e-20)
(0.0537847 -7.0793e-05 -6.38221e-19)
(0.0536953 -7.18061e-05 -2.11737e-19)
(0.053713 -7.29701e-05 3.4691e-19)
(0.0540249 -7.32815e-05 -3.28223e-20)
(0.0734339 -9.11915e-05 -2.85773e-19)
(0.0516872 -6.58734e-05 2.38159e-20)
(0.053535 -6.90935e-05 -2.94382e-19)
(0.0534423 -7.00282e-05 3.22553e-19)
(0.0534562 -7.11214e-05 5.42647e-19)
(0.0537669 -7.14296e-05 -5.30583e-20)
(0.0729893 -9.67173e-05 -4.02326e-19)
(0.0514211 -7.50806e-05 3.24812e-20)
(0.0532473 -7.80089e-05 -1.12978e-21)
(0.0531509 -7.91202e-05 5.672e-19)
(0.0531599 -8.03669e-05 5.87542e-19)
(0.0534694 -8.07138e-05 2.46694e-20)
(0.0722909 -1.25034e-05 -2.58808e-20)
(0.0512325 -9.96871e-05 1.49874e-21)
(0.052968 -9.08684e-05 -6.14725e-23)
(0.0528748 -9.29944e-05 3.45354e-19)
(0.0528792 -9.43845e-05 -3.26228e-20)
(0.0528797 -9.58581e-05 1.88992e-21)
(0.0531881 -9.6276e-05 -2.95161e-19)
)
;

boundaryField
{
    inlet
    {
        type            calculated;
        value           nonuniform List<vector> 0();
    }
    outlet2
    {
        type            calculated;
        value           uniform (0 0 0);
    }
    outlet1
    {
        type            calculated;
        value           uniform (0 0 0);
    }
    wall
    {
        type            calculated;
        value           uniform (0 0 0);
    }
    symmetryBottom
    {
        type            symmetry;
    }
    symmetryZ0
    {
        type            symmetry;
    }
    symmetryZ05
    {
        type            symmetry;
    }
    procBoundary0to1
    {
        type            processor;
        value           uniform (0 0 0);
    }
}


// ************************************************************************* //
