/*--------------------------------*- C++ -*----------------------------------*\
| =========                 |                                                 |
| \\      /  F ield         | OpenFOAM: The Open Source CFD Toolbox           |
|  \\    /   O peration     | Version:  2412                                  |
|   \\  /    A nd           | Website:  www.openfoam.com                      |
|    \\/     M anipulation  |                                                 |
\*---------------------------------------------------------------------------*/
FoamFile
{
    version     2.0;
    format      ascii;
    arch        "LSB;label=32;scalar=64";
    class       volScalarField;
    location    "5.2e-06";
    object      T;
}
// * * * * * * * * * * * * * * * * * * * * * * * * * * * * * * * * * * * * * //

dimensions      [0 0 0 0 0 0 0];

internalField   nonuniform List<scalar> 
84
(
203.158
203.209
203.293
203.338
203.39
203.443
203.498
203.493
199.983
199.965
200.003
199.998
199.998
199.998
199.998
199.998
199.966
199.966
200.002
199.998
199.998
199.998
199.998
199.998
199.987
199.963
200.003
199.997
199.998
199.998
199.998
199.988
199.966
200.007
200.001
200.002
200.002
200.002
200.468
200.479
200.519
200.519
200.525
200.53
200.529
202.817
202.905
202.975
203.016
203.062
203.11
203.105
204.907
205.254
205.281
205.367
205.452
205.539
205.53
213.349
215.046
215.179
215.446
215.718
215.687
194.372
194.229
194.186
194.086
193.988
193.998
198.569
198.606
198.614
198.587
198.564
198.566
199.873
199.371
199.431
199.416
199.406
199.396
199.398
)
;

boundaryField
{
    inlet
    {
        type            calculated;
        value           nonuniform List<scalar> 0();
    }
    outlet2
    {
        type            calculated;
        value           uniform 0;
    }
    outlet1
    {
        type            calculated;
        value           uniform 0;
    }
    wall
    {
        type            calculated;
        value           uniform 0;
    }
    symmetryBottom
    {
        type            symmetry;
    }
    symmetryZ0
    {
        type            symmetry;
    }
    symmetryZ05
    {
        type            symmetry;
    }
    procBoundary0to1
    {
        type            processor;
        value           uniform 0;
    }
}


// ************************************************************************* //
