/*--------------------------------*- C++ -*----------------------------------*\
| =========                 |                                                 |
| \\      /  F ield         | OpenFOAM: The Open Source CFD Toolbox           |
|  \\    /   O peration     | Version:  2412                                  |
|   \\  /    A nd           | Website:  www.openfoam.com                      |
|    \\/     M anipulation  |                                                 |
\*---------------------------------------------------------------------------*/
FoamFile
{
    version     2.0;
    format      ascii;
    arch        "LSB;label=32;scalar=64";
    class       volVectorField;
    location    "5.2e-06";
    object      U;
}
// * * * * * * * * * * * * * * * * * * * * * * * * * * * * * * * * * * * * * //

dimensions      [0 0 0 0 0 0 0];

internalField   nonuniform List<vector> 
84
(
(2634.78 5.3586 5.33222e-15)
(2628.92 5.4588 -7.58131e-15)
(2630.11 5.53301 -1.35104e-14)
(2630 5.6139 8.03499e-15)
(2629.99 5.69686 -9.02644e-16)
(2629.97 5.78233 9.79127e-16)
(2629.96 5.87038 1.29163e-14)
(2630.06 5.86247 1.9058e-15)
(2636.52 -5.46781 5.29228e-15)
(2630.75 -5.64045 -7.15063e-15)
(2631.95 -5.69965 -1.62539e-14)
(2631.87 -5.78751 1.72084e-15)
(2631.89 -5.8758 -3.07857e-14)
(2631.9 -5.96696 6.53208e-15)
(2631.91 -6.06098 2.45265e-14)
(2632.01 -6.05161 4.92862e-15)
(2636.35 -5.02012 -2.15741e-14)
(2630.83 -6.19881 5.61353e-15)
(2631.85 -5.64443 9.52602e-15)
(2631.79 -5.79196 -9.33728e-16)
(2631.8 -5.87682 -3.8207e-16)
(2631.82 -5.96815 1.21346e-14)
(2631.83 -6.06221 -1.06687e-14)
(2631.92 -6.05283 -1.16608e-14)
(2636.29 -5.20396 -2.10309e-14)
(2630.61 -5.74563 1.39363e-14)
(2631.8 -5.78748 -1.29619e-15)
(2631.72 -5.87823 -2.77263e-14)
(2631.73 -5.96936 2.71297e-14)
(2631.74 -6.06346 4.79472e-15)
(2631.84 -6.05408 -1.07302e-14)
(2636.3 -5.55855 -1.31851e-14)
(2630.51 -5.7206 -5.0539e-15)
(2631.72 -5.79125 4.66065e-16)
(2631.63 -5.88097 1.42887e-16)
(2631.65 -5.97222 -1.02711e-14)
(2631.66 -6.06641 7.85669e-15)
(2631.76 -6.05702 1.72542e-14)
(2636.2 -5.35741 -7.9999e-15)
(2630.4 -5.50535 1.52182e-14)
(2631.61 -5.57653 -1.37448e-15)
(2631.52 -5.66439 1.78418e-14)
(2631.54 -5.75394 -1.61962e-14)
(2631.54 -5.84643 1.3758e-14)
(2631.64 -5.83741 -2.98923e-14)
(2636.03 -4.31442 -2.63737e-18)
(2630.2 -4.43863 1.46102e-14)
(2631.41 -4.49168 -1.34204e-15)
(2631.32 -4.56281 2.31477e-17)
(2631.33 -4.63482 1.47823e-14)
(2631.33 -4.70921 1.99518e-15)
(2631.43 -4.70201 1.45824e-14)
(2635.89 -3.27563 1.70685e-16)
(2630.13 -4.23898 1.7399e-16)
(2631.26 -3.77709 -7.1601e-17)
(2631.18 -3.88784 -1.77854e-16)
(2631.18 -3.94697 -3.74038e-17)
(2631.19 -4.01121 7.89074e-17)
(2631.29 -4.00503 -1.2342e-14)
(2635.75 -3.11949 2.84968e-14)
(2629.86 -3.43355 -3.36601e-15)
(2631.08 -3.4631 -3.12209e-14)
(2630.98 -3.51838 -1.03747e-14)
(2630.98 -3.57424 1.69924e-14)
(2631.08 -3.56891 -1.59849e-15)
(2635.83 -3.27321 -1.02575e-14)
(2630.1 -3.35196 1.21187e-15)
(2631.29 -3.396 -1.44691e-14)
(2631.2 -3.4478 1.58807e-14)
(2631.2 -3.50071 2.671e-14)
(2631.3 -3.4957 -2.59662e-15)
(2635.78 -3.49264 -1.45287e-14)
(2630 -3.8401 1.6613e-15)
(2631.19 -3.85478 -5.58276e-17)
(2631.1 -3.91665 2.80779e-14)
(2631.11 -3.9777 2.90799e-14)
(2631.21 -3.97189 1.21397e-15)
(2635.69 -0.455866 -9.436e-16)
(2629.96 -5.11733 7.69359e-17)
(2631.14 -4.51381 -3.0536e-18)
(2631.05 -4.6274 1.71848e-14)
(2631.05 -4.69619 -1.62318e-15)
(2631.05 -4.76947 9.40336e-17)
(2631.15 -4.76266 -1.46012e-14)
)
;

boundaryField
{
    inlet
    {
        type            calculated;
        value           nonuniform List<vector> 0();
    }
    outlet2
    {
        type            calculated;
        value           uniform (0 0 0);
    }
    outlet1
    {
        type            calculated;
        value           uniform (0 0 0);
    }
    wall
    {
        type            calculated;
        value           uniform (0 0 0);
    }
    symmetryBottom
    {
        type            symmetry;
    }
    symmetryZ0
    {
        type            symmetry;
    }
    symmetryZ05
    {
        type            symmetry;
    }
    procBoundary0to1
    {
        type            processor;
        value           uniform (0 0 0);
    }
}


// ************************************************************************* //
