/*--------------------------------*- C++ -*----------------------------------*\
| =========                 |                                                 |
| \\      /  F ield         | OpenFOAM: The Open Source CFD Toolbox           |
|  \\    /   O peration     | Version:  2412                                  |
|   \\  /    A nd           | Website:  www.openfoam.com                      |
|    \\/     M anipulation  |                                                 |
\*---------------------------------------------------------------------------*/
FoamFile
{
    version     2.0;
    format      ascii;
    arch        "LSB;label=32;scalar=64";
    class       volScalarField;
    location    "6.3e-06";
    object      E;
}
// * * * * * * * * * * * * * * * * * * * * * * * * * * * * * * * * * * * * * //

dimensions      [0 0 0 0 0 0 0];

internalField   nonuniform List<scalar> 
84
(
99.439
20.5396
38.6499
99.4721
20.5648
38.6745
99.4637
20.5616
38.6699
99.4637
20.5616
38.6699
99.4637
20.5616
38.6699
99.4637
20.5616
38.6699
99.4637
20.5616
38.6699
99.4637
20.5616
38.6699
99.4637
20.5616
38.6699
99.4637
20.5616
38.6699
99.4637
20.5615
38.6699
99.4639
20.5557
38.667
69.547
65.7571
66.4605
73.8014
69.5439
70.3045
73.3527
69.1443
69.8941
72.9063
68.747
69.1037
65.6032
72.4617
68.3513
68.698
69.1251
72.0193
67.9574
68.2942
68.7195
71.5873
67.5723
67.8995
68.3231
71.1666
67.1971
67.515
67.9342
70.7785
66.8467
67.1566
67.1603
65.7972
70.244
66.3805
66.6774
66.6742
67.1025
69.8308
66.0112
66.299
66.292
66.8492
69.4188
65.6433
65.9223
66.3362
)
;

boundaryField
{
    inlet
    {
        type            calculated;
        value           uniform 0;
    }
    outlet2
    {
        type            calculated;
        value           uniform 0;
    }
    outlet1
    {
        type            calculated;
        value           nonuniform List<scalar> 0();
    }
    wall
    {
        type            calculated;
        value           uniform 0;
    }
    symmetryBottom
    {
        type            symmetry;
    }
    symmetryZ0
    {
        type            symmetry;
    }
    symmetryZ05
    {
        type            symmetry;
    }
    procBoundary1to0
    {
        type            processor;
        value           uniform 0;
    }
}


// ************************************************************************* //
