/*--------------------------------*- C++ -*----------------------------------*\
| =========                 |                                                 |
| \\      /  F ield         | OpenFOAM: The Open Source CFD Toolbox           |
|  \\    /   O peration     | Version:  2412                                  |
|   \\  /    A nd           | Website:  www.openfoam.com                      |
|    \\/     M anipulation  |                                                 |
\*---------------------------------------------------------------------------*/
FoamFile
{
    version     2.0;
    format      ascii;
    arch        "LSB;label=32;scalar=64";
    class       volVectorField;
    location    "6.3e-06";
    object      U;
}
// * * * * * * * * * * * * * * * * * * * * * * * * * * * * * * * * * * * * * //

dimensions      [0 0 0 0 0 0 0];

internalField   nonuniform List<vector> 
84
(
(2636.39 -0.0218462 0)
(2591.31 -0.109973 0)
(2623.93 -0.0501409 -1.09026e-14)
(2636.39 -4.9046 0)
(2591.34 -7.35789 0)
(2623.93 -6.22347 -1.06827e-14)
(2636.39 -4.88383 0)
(2591.33 -7.32277 0)
(2623.93 -6.19527 1.45036e-14)
(2636.39 -4.88383 0)
(2591.33 -7.32277 0)
(2623.93 -6.19527 -1.93282e-14)
(2636.39 -4.88383 0)
(2591.33 -7.32277 0)
(2623.93 -6.19527 -2.92954e-14)
(2636.39 -4.88383 0)
(2591.33 -7.32277 0)
(2623.93 -6.19527 1.89613e-14)
(2636.39 -4.88383 0)
(2591.33 -7.32277 0)
(2623.93 -6.19527 -2.12382e-14)
(2636.39 -4.88383 0)
(2591.33 -7.32277 0)
(2623.93 -6.19527 -2.42726e-14)
(2636.39 -4.88383 0)
(2591.33 -7.32277 0)
(2623.93 -6.19527 1.08226e-14)
(2636.39 -4.88383 0)
(2591.33 -7.32276 0)
(2623.93 -6.19526 -2.12459e-14)
(2636.39 -4.88383 0)
(2591.33 -7.32211 0)
(2623.93 -6.19508 -5.73959e-14)
(2636.39 -4.88442 0)
(2591.33 -7.25395 0)
(2623.93 -6.17654 0)
(2630.14 6.65152 7.76129e-16)
(2628.56 6.25794 7.59247e-15)
(2628.86 6.28554 7.85098e-16)
(2632.37 -6.42142 7.053e-16)
(2630.66 -6.52281 7.91423e-15)
(2630.97 -6.51001 -2.1797e-16)
(2632.27 -6.42396 -9.92761e-16)
(2630.57 -6.5239 -3.77683e-15)
(2630.88 -6.50386 -1.22192e-14)
(2632.17 -6.42531 1.29234e-15)
(2630.48 -6.52508 -2.20321e-16)
(2630.69 -6.61594 1.63322e-17)
(2629.79 0.53964 1.12989e-14)
(2632.07 -6.4288 -1.58346e-15)
(2630.39 -6.52824 5.90299e-17)
(2630.6 -6.61923 -1.20544e-16)
(2630.7 -6.60821 1.08444e-14)
(2631.94 -6.18491 -1.28678e-15)
(2630.26 -6.30088 -7.73256e-15)
(2630.47 -6.38912 5.78213e-16)
(2630.57 -6.37858 8.24595e-15)
(2631.72 -4.89534 1.51585e-15)
(2630.03 -5.08154 -1.76019e-16)
(2630.24 -5.14527 5.55555e-18)
(2630.33 -5.13715 -6.68463e-17)
(2631.56 -4.1103 1.86033e-15)
(2629.86 -4.33822 -7.86744e-15)
(2630.07 -4.38819 8.79286e-15)
(2630.17 -4.37578 1.2873e-16)
(2631.38 -3.6063 -7.41222e-16)
(2629.6 -3.86147 -1.10449e-14)
(2629.82 -3.90041 -1.07309e-14)
(2629.8 -3.95771 1.20108e-14)
(2629.77 0.566476 6.84909e-14)
(2631.5 -3.51245 1.62008e-15)
(2629.93 -3.77372 -1.14424e-14)
(2630.12 -3.80863 8.62426e-15)
(2630.11 -3.86282 1.48974e-14)
(2630.23 -3.88652 1.0209e-14)
(2631.42 -4.05998 4.10102e-15)
(2629.81 -4.28839 -3.057e-16)
(2630 -4.33481 2.97828e-17)
(2629.99 -4.40287 -2.45737e-17)
(2630.13 -4.7524 -1.14791e-14)
(2631.36 -4.96044 8.1945e-18)
(2629.75 -5.13307 1.14493e-14)
(2629.94 -5.19655 -1.18508e-15)
(2630.04 -5.1856 -1.5158e-14)
)
;

boundaryField
{
    inlet
    {
        type            calculated;
        value           uniform (0 0 0);
    }
    outlet2
    {
        type            calculated;
        value           uniform (0 0 0);
    }
    outlet1
    {
        type            calculated;
        value           nonuniform List<vector> 0();
    }
    wall
    {
        type            calculated;
        value           uniform (0 0 0);
    }
    symmetryBottom
    {
        type            symmetry;
    }
    symmetryZ0
    {
        type            symmetry;
    }
    symmetryZ05
    {
        type            symmetry;
    }
    procBoundary1to0
    {
        type            processor;
        value           uniform (0 0 0);
    }
}


// ************************************************************************* //
