/*--------------------------------*- C++ -*----------------------------------*\
| =========                 |                                                 |
| \\      /  F ield         | OpenFOAM: The Open Source CFD Toolbox           |
|  \\    /   O peration     | Version:  2412                                  |
|   \\  /    A nd           | Website:  www.openfoam.com                      |
|    \\/     M anipulation  |                                                 |
\*---------------------------------------------------------------------------*/
FoamFile
{
    version     2.0;
    format      ascii;
    arch        "LSB;label=32;scalar=64";
    class       volScalarField;
    location    "2.2e-06";
    object      E;
}
// * * * * * * * * * * * * * * * * * * * * * * * * * * * * * * * * * * * * * //

dimensions      [0 0 0 0 0 0 0];

internalField   nonuniform List<scalar> 
84
(
99.4318
67.2298
69.8865
99.4366
67.2398
69.8956
99.4353
67.2388
69.8946
99.4353
67.2388
69.8946
99.4353
67.2388
69.8946
99.4353
67.2388
69.8946
99.4353
67.2388
69.8946
99.4353
67.2388
69.8946
99.4353
67.2388
69.8946
99.4353
67.2388
69.8946
99.4353
67.2388
69.8946
99.4354
67.2362
69.8924
86.75
86.129
86.3236
88.5236
87.8608
88.0596
88.3417
87.6831
87.8809
88.1601
87.5058
87.5416
86.0698
87.9788
87.3287
87.3617
87.5464
87.7987
87.1528
87.1832
87.3676
87.6227
86.9808
87.0086
87.1927
87.4489
86.8109
86.8361
87.0196
87.2926
86.6577
86.6805
86.6887
86.097
87.0612
86.4331
86.4525
86.4573
86.6418
86.8939
86.2694
86.2863
86.2889
86.4902
86.7189
86.0984
86.1127
86.2953
)
;

boundaryField
{
    inlet
    {
        type            calculated;
        value           uniform 0;
    }
    outlet2
    {
        type            calculated;
        value           uniform 0;
    }
    outlet1
    {
        type            calculated;
        value           nonuniform List<scalar> 0();
    }
    wall
    {
        type            calculated;
        value           uniform 0;
    }
    symmetryBottom
    {
        type            symmetry;
    }
    symmetryZ0
    {
        type            symmetry;
    }
    symmetryZ05
    {
        type            symmetry;
    }
    procBoundary1to0
    {
        type            processor;
        value           uniform 0;
    }
}


// ************************************************************************* //
