/*--------------------------------*- C++ -*----------------------------------*\
| =========                 |                                                 |
| \\      /  F ield         | OpenFOAM: The Open Source CFD Toolbox           |
|  \\    /   O peration     | Version:  2412                                  |
|   \\  /    A nd           | Website:  www.openfoam.com                      |
|    \\/     M anipulation  |                                                 |
\*---------------------------------------------------------------------------*/
FoamFile
{
    version     2.0;
    format      ascii;
    arch        "LSB;label=32;scalar=64";
    class       volScalarField;
    location    "2.2e-06";
    object      T;
}
// * * * * * * * * * * * * * * * * * * * * * * * * * * * * * * * * * * * * * //

dimensions      [0 0 0 0 0 0 0];

internalField   nonuniform List<scalar> 
84
(
200.002
199.961
200.01
199.996
199.948
199.998
199.994
199.946
199.996
199.994
199.946
199.996
199.994
199.946
199.996
199.994
199.946
199.996
199.994
199.946
199.996
199.994
199.946
199.996
199.994
199.946
199.996
199.994
199.946
199.996
199.994
199.946
199.996
199.994
199.941
199.992
201.334
201.308
201.309
200.005
199.999
200
200.005
199.999
200
200.005
199.999
200
200.004
200.006
200
200
200
200.252
200.241
200.245
200.245
201.197
201.173
201.191
201.19
202.086
202.048
202.079
202.078
205.563
205.467
205.551
205.634
199.816
197.779
197.805
197.773
197.74
197.712
199.475
199.478
199.47
199.463
199.477
199.784
199.781
199.778
199.778
)
;

boundaryField
{
    inlet
    {
        type            calculated;
        value           uniform 0;
    }
    outlet2
    {
        type            calculated;
        value           uniform 0;
    }
    outlet1
    {
        type            calculated;
        value           nonuniform List<scalar> 0();
    }
    wall
    {
        type            calculated;
        value           uniform 0;
    }
    symmetryBottom
    {
        type            symmetry;
    }
    symmetryZ0
    {
        type            symmetry;
    }
    symmetryZ05
    {
        type            symmetry;
    }
    procBoundary1to0
    {
        type            processor;
        value           uniform 0;
    }
}


// ************************************************************************* //
