/*--------------------------------*- C++ -*----------------------------------*\
| =========                 |                                                 |
| \\      /  F ield         | OpenFOAM: The Open Source CFD Toolbox           |
|  \\    /   O peration     | Version:  2412                                  |
|   \\  /    A nd           | Website:  www.openfoam.com                      |
|    \\/     M anipulation  |                                                 |
\*---------------------------------------------------------------------------*/
FoamFile
{
    version     2.0;
    format      ascii;
    arch        "LSB;label=32;scalar=64";
    class       volScalarField;
    location    "5.4e-06";
    object      rho;
}
// * * * * * * * * * * * * * * * * * * * * * * * * * * * * * * * * * * * * * //

dimensions      [0 0 0 0 0 0 0];

internalField   nonuniform List<scalar> 
84
(
2.75813e-05
1.91853e-05
1.9919e-05
1.9878e-05
1.98808e-05
1.98819e-05
1.98831e-05
2.0003e-05
2.89486e-05
2.01587e-05
2.09421e-05
2.09148e-05
2.09338e-05
2.09515e-05
2.09698e-05
2.10946e-05
2.86983e-05
2.01559e-05
2.08226e-05
2.08054e-05
2.08219e-05
2.08378e-05
2.08542e-05
2.09785e-05
2.85917e-05
1.99689e-05
2.07387e-05
2.07088e-05
2.07247e-05
2.07392e-05
2.0863e-05
2.85351e-05
1.98597e-05
2.06296e-05
2.05979e-05
2.0612e-05
2.06247e-05
2.0748e-05
2.83896e-05
1.97559e-05
2.05203e-05
2.04871e-05
2.04994e-05
2.05102e-05
2.0633e-05
2.82436e-05
1.96528e-05
2.04112e-05
2.03766e-05
2.03871e-05
2.0396e-05
2.05183e-05
2.80444e-05
1.9607e-05
2.0298e-05
2.02684e-05
2.02768e-05
2.02839e-05
2.04057e-05
2.79103e-05
1.94518e-05
2.01967e-05
2.01592e-05
2.01663e-05
2.02875e-05
2.78274e-05
1.93544e-05
2.00981e-05
2.00592e-05
2.00648e-05
2.01855e-05
2.76519e-05
1.92518e-05
1.99865e-05
1.99462e-05
1.99499e-05
2.00701e-05
2.73785e-05
1.91801e-05
1.98779e-05
1.98392e-05
1.9841e-05
1.98412e-05
1.9961e-05
)
;

boundaryField
{
    inlet
    {
        type            calculated;
        value           nonuniform List<scalar> 0();
    }
    outlet2
    {
        type            calculated;
        value           uniform 0;
    }
    outlet1
    {
        type            calculated;
        value           uniform 0;
    }
    wall
    {
        type            calculated;
        value           uniform 0;
    }
    symmetryBottom
    {
        type            symmetry;
    }
    symmetryZ0
    {
        type            symmetry;
    }
    symmetryZ05
    {
        type            symmetry;
    }
    procBoundary0to1
    {
        type            processor;
        value           uniform 0;
    }
}


// ************************************************************************* //
