/*--------------------------------*- C++ -*----------------------------------*\
| =========                 |                                                 |
| \\      /  F ield         | OpenFOAM: The Open Source CFD Toolbox           |
|  \\    /   O peration     | Version:  2412                                  |
|   \\  /    A nd           | Website:  www.openfoam.com                      |
|    \\/     M anipulation  |                                                 |
\*---------------------------------------------------------------------------*/
FoamFile
{
    version     2.0;
    format      ascii;
    arch        "LSB;label=32;scalar=64";
    class       volScalarField;
    location    "5.4e-06";
    object      T;
}
// * * * * * * * * * * * * * * * * * * * * * * * * * * * * * * * * * * * * * //

dimensions      [0 0 0 0 0 0 0];

internalField   nonuniform List<scalar> 
84
(
203.28
203.331
203.421
203.467
203.521
203.576
203.633
203.628
199.982
199.961
200.003
199.997
199.998
199.998
199.998
199.998
199.964
199.962
200.002
199.998
199.998
199.998
199.998
199.998
199.986
199.959
200.003
199.997
199.998
199.998
199.998
199.987
199.963
200.007
200.002
200.002
200.002
200.002
200.479
200.489
200.533
200.532
200.538
200.543
200.542
202.923
203.014
203.089
203.131
203.179
203.229
203.223
205.095
205.463
205.489
205.578
205.667
205.758
205.748
213.89
215.716
215.844
216.125
216.411
216.378
194.144
193.996
193.954
193.848
193.747
193.757
198.508
198.549
198.558
198.529
198.505
198.508
199.865
199.342
199.408
199.392
199.382
199.372
199.373
)
;

boundaryField
{
    inlet
    {
        type            calculated;
        value           nonuniform List<scalar> 0();
    }
    outlet2
    {
        type            calculated;
        value           uniform 0;
    }
    outlet1
    {
        type            calculated;
        value           uniform 0;
    }
    wall
    {
        type            calculated;
        value           uniform 0;
    }
    symmetryBottom
    {
        type            symmetry;
    }
    symmetryZ0
    {
        type            symmetry;
    }
    symmetryZ05
    {
        type            symmetry;
    }
    procBoundary0to1
    {
        type            processor;
        value           uniform 0;
    }
}


// ************************************************************************* //
