/*--------------------------------*- C++ -*----------------------------------*\
| =========                 |                                                 |
| \\      /  F ield         | OpenFOAM: The Open Source CFD Toolbox           |
|  \\    /   O peration     | Version:  2412                                  |
|   \\  /    A nd           | Website:  www.openfoam.com                      |
|    \\/     M anipulation  |                                                 |
\*---------------------------------------------------------------------------*/
FoamFile
{
    version     2.0;
    format      ascii;
    arch        "LSB;label=32;scalar=64";
    class       volVectorField;
    location    "5.4e-06";
    object      U;
}
// * * * * * * * * * * * * * * * * * * * * * * * * * * * * * * * * * * * * * //

dimensions      [0 0 0 0 0 0 0];

internalField   nonuniform List<vector> 
84
(
(2634.7 5.55702 5.56048e-15)
(2628.57 5.661 -7.91583e-15)
(2629.87 5.73765 -1.38902e-14)
(2629.75 5.82143 8.38968e-15)
(2629.74 5.90732 -9.88905e-16)
(2629.73 5.9958 1.02928e-15)
(2629.71 6.08695 1.31881e-14)
(2629.81 6.07844 1.91856e-15)
(2636.5 -5.67725 5.43065e-15)
(2630.47 -5.85906 -7.52582e-15)
(2631.79 -5.91863 -1.68109e-14)
(2631.69 -6.01012 1.84484e-15)
(2631.71 -6.10179 -3.17788e-14)
(2631.73 -6.19646 6.93046e-15)
(2631.74 -6.2941 2.53169e-14)
(2631.84 -6.284 5.11824e-15)
(2636.32 -5.19786 -2.2213e-14)
(2630.57 -6.46813 5.9029e-15)
(2631.68 -5.85609 9.88624e-15)
(2631.61 -6.01522 -1.00704e-15)
(2631.63 -6.10282 -4.06689e-16)
(2631.64 -6.1977 1.25047e-14)
(2631.65 -6.29537 -1.0942e-14)
(2631.75 -6.28527 -1.19577e-14)
(2636.26 -5.39279 -2.16464e-14)
(2630.33 -5.96997 1.4527e-14)
(2631.63 -6.00983 -1.39602e-15)
(2631.54 -6.10433 -2.87077e-14)
(2631.55 -6.19895 2.816e-14)
(2631.56 -6.29668 4.8654e-15)
(2631.67 -6.28657 -1.09898e-14)
(2636.27 -5.77203 -1.36439e-14)
(2630.23 -5.94155 -5.17513e-15)
(2631.55 -6.01395 5.00108e-16)
(2631.45 -6.10724 1.53173e-16)
(2631.47 -6.202 -1.04804e-14)
(2631.48 -6.29982 8.19456e-15)
(2631.58 -6.2897 1.78674e-14)
(2636.17 -5.56698 -8.2128e-15)
(2630.12 -5.72163 1.58563e-14)
(2631.43 -5.79488 -1.4807e-15)
(2631.34 -5.88635 1.83753e-14)
(2631.35 -5.97947 -1.68257e-14)
(2631.36 -6.07566 1.42355e-14)
(2631.46 -6.06593 -3.09622e-14)
(2636 -4.4826 -2.80016e-18)
(2629.9 -4.61318 1.50904e-14)
(2631.22 -4.66723 -1.44326e-15)
(2631.12 -4.74134 3.0291e-17)
(2631.13 -4.81621 1.52998e-14)
(2631.14 -4.89357 2.05144e-15)
(2631.24 -4.88579 1.50447e-14)
(2635.84 -3.39106 1.82967e-16)
(2629.83 -4.4324 1.90351e-16)
(2631.07 -3.92222 -7.63505e-17)
(2630.98 -4.04233 -1.91795e-16)
(2630.98 -4.10347 -4.01917e-17)
(2630.98 -4.17035 8.62145e-17)
(2631.09 -4.16367 -1.26417e-14)
(2635.7 -3.23268 2.96141e-14)
(2629.54 -3.56823 -3.66644e-15)
(2630.87 -3.59694 -3.22394e-14)
(2630.76 -3.65451 -1.05132e-14)
(2630.77 -3.71255 1.76132e-14)
(2630.87 -3.70679 -1.76489e-15)
(2635.78 -3.39548 -1.06178e-14)
(2629.81 -3.47772 1.32071e-15)
(2631.1 -3.52294 -1.49923e-14)
(2631 -3.57666 1.65176e-14)
(2631.01 -3.63149 2.75869e-14)
(2631.11 -3.62609 -2.77509e-15)
(2635.74 -3.61701 -1.50586e-14)
(2629.7 -3.98995 1.81424e-15)
(2631 -4.00112 -6.48825e-17)
(2630.9 -4.06567 2.91306e-14)
(2630.91 -4.12899 3.01135e-14)
(2631.01 -4.12274 1.22774e-15)
(2635.64 -0.488014 -1.00259e-15)
(2629.66 -5.34307 8.65959e-17)
(2630.94 -4.68131 -3.57737e-18)
(2630.84 -4.8033 1.78013e-14)
(2630.85 -4.87437 -1.74839e-15)
(2630.85 -4.9504 1.05547e-16)
(2630.95 -4.94306 -1.50102e-14)
)
;

boundaryField
{
    inlet
    {
        type            calculated;
        value           nonuniform List<vector> 0();
    }
    outlet2
    {
        type            calculated;
        value           uniform (0 0 0);
    }
    outlet1
    {
        type            calculated;
        value           uniform (0 0 0);
    }
    wall
    {
        type            calculated;
        value           uniform (0 0 0);
    }
    symmetryBottom
    {
        type            symmetry;
    }
    symmetryZ0
    {
        type            symmetry;
    }
    symmetryZ05
    {
        type            symmetry;
    }
    procBoundary0to1
    {
        type            processor;
        value           uniform (0 0 0);
    }
}


// ************************************************************************* //
