/*--------------------------------*- C++ -*----------------------------------*\
| =========                 |                                                 |
| \\      /  F ield         | OpenFOAM: The Open Source CFD Toolbox           |
|  \\    /   O peration     | Version:  2412                                  |
|   \\  /    A nd           | Website:  www.openfoam.com                      |
|    \\/     M anipulation  |                                                 |
\*---------------------------------------------------------------------------*/
FoamFile
{
    version     2.0;
    format      ascii;
    arch        "LSB;label=32;scalar=64";
    class       volScalarField;
    location    "4.4e-06";
    object      rho_dof0;
}
// * * * * * * * * * * * * * * * * * * * * * * * * * * * * * * * * * * * * * //

dimensions      [0 0 0 0 0 0 0];

internalField   nonuniform List<scalar> 
84
(
2.81097e-05
1.15476e-05
1.42292e-05
2.81147e-05
1.15534e-05
1.42345e-05
2.81135e-05
1.15527e-05
1.42336e-05
2.81135e-05
1.15527e-05
1.42336e-05
2.81135e-05
1.15527e-05
1.42336e-05
2.81135e-05
1.15527e-05
1.42336e-05
2.81135e-05
1.15527e-05
1.42336e-05
2.81135e-05
1.15527e-05
1.42336e-05
2.81135e-05
1.15527e-05
1.42336e-05
2.81135e-05
1.15527e-05
1.42336e-05
2.81135e-05
1.15527e-05
1.42336e-05
2.81135e-05
1.15514e-05
1.42328e-05
2.17534e-05
2.11595e-05
2.12795e-05
2.26459e-05
2.19921e-05
2.21182e-05
2.25521e-05
2.19045e-05
2.20293e-05
2.24586e-05
2.18172e-05
2.18592e-05
2.11138e-05
2.23654e-05
2.17302e-05
2.17705e-05
2.18635e-05
2.22722e-05
2.16433e-05
2.16819e-05
2.17746e-05
2.21792e-05
2.15565e-05
2.15935e-05
2.1686e-05
2.20874e-05
2.14709e-05
2.15063e-05
2.15981e-05
2.19923e-05
2.13823e-05
2.1416e-05
2.14188e-05
2.11447e-05
2.19069e-05
2.13025e-05
2.13348e-05
2.13364e-05
2.1429e-05
2.18135e-05
2.12154e-05
2.1246e-05
2.12466e-05
2.13574e-05
2.17238e-05
2.11315e-05
2.11606e-05
2.12516e-05
)
;

boundaryField
{
    inlet
    {
        type            calculated;
        value           uniform 2.81085e-05;
    }
    outlet2
    {
        type            calculated;
        value           uniform 2.81085e-05;
    }
    outlet1
    {
        type            calculated;
        value           nonuniform List<scalar> 0();
    }
    wall
    {
        type            calculated;
        value           uniform 2.81085e-05;
    }
    symmetryBottom
    {
        type            symmetry;
    }
    symmetryZ0
    {
        type            symmetry;
    }
    symmetryZ05
    {
        type            symmetry;
    }
    procBoundary1to0
    {
        type            processor;
        value           uniform 2.81085e-05;
    }
}


// ************************************************************************* //
