/*--------------------------------*- C++ -*----------------------------------*\
| =========                 |                                                 |
| \\      /  F ield         | OpenFOAM: The Open Source CFD Toolbox           |
|  \\    /   O peration     | Version:  2412                                  |
|   \\  /    A nd           | Website:  www.openfoam.com                      |
|    \\/     M anipulation  |                                                 |
\*---------------------------------------------------------------------------*/
FoamFile
{
    version     2.0;
    format      ascii;
    arch        "LSB;label=32;scalar=64";
    class       volScalarField;
    location    "3e-07";
    object      rho_dof0;
}
// * * * * * * * * * * * * * * * * * * * * * * * * * * * * * * * * * * * * * //

dimensions      [0 0 0 0 0 0 0];

internalField   nonuniform List<scalar> 
84
(
2.8116e-05
2.75684e-05
2.75703e-05
2.75703e-05
2.75703e-05
2.75703e-05
2.75704e-05
2.75789e-05
2.8193e-05
2.76455e-05
2.76485e-05
2.76497e-05
2.76509e-05
2.76522e-05
2.76535e-05
2.7662e-05
2.81849e-05
2.76377e-05
2.76405e-05
2.76416e-05
2.76427e-05
2.76439e-05
2.7645e-05
2.76535e-05
2.81781e-05
2.76307e-05
2.76335e-05
2.76345e-05
2.76355e-05
2.76365e-05
2.7645e-05
2.81704e-05
2.76227e-05
2.76254e-05
2.76262e-05
2.76271e-05
2.7628e-05
2.76366e-05
2.81624e-05
2.76147e-05
2.76173e-05
2.7618e-05
2.76188e-05
2.76196e-05
2.76281e-05
2.81545e-05
2.76067e-05
2.76092e-05
2.76098e-05
2.76104e-05
2.76111e-05
2.76196e-05
2.81464e-05
2.75988e-05
2.76011e-05
2.76016e-05
2.76021e-05
2.76026e-05
2.76111e-05
2.81389e-05
2.75912e-05
2.75933e-05
2.75937e-05
2.75941e-05
2.76026e-05
2.8131e-05
2.75831e-05
2.75851e-05
2.75854e-05
2.75857e-05
2.75942e-05
2.81228e-05
2.7575e-05
2.75769e-05
2.7577e-05
2.75772e-05
2.75857e-05
2.81067e-05
2.75669e-05
2.75687e-05
2.75687e-05
2.75687e-05
2.75687e-05
2.75772e-05
)
;

boundaryField
{
    inlet
    {
        type            calculated;
        value           nonuniform List<scalar> 0();
    }
    outlet2
    {
        type            calculated;
        value           uniform 2.81085e-05;
    }
    outlet1
    {
        type            calculated;
        value           uniform 2.81085e-05;
    }
    wall
    {
        type            calculated;
        value           uniform 2.81085e-05;
    }
    symmetryBottom
    {
        type            symmetry;
    }
    symmetryZ0
    {
        type            symmetry;
    }
    symmetryZ05
    {
        type            symmetry;
    }
    procBoundary0to1
    {
        type            processor;
        value           uniform 2.81085e-05;
    }
}


// ************************************************************************* //
