/*--------------------------------*- C++ -*----------------------------------*\
| =========                 |                                                 |
| \\      /  F ield         | OpenFOAM: The Open Source CFD Toolbox           |
|  \\    /   O peration     | Version:  2412                                  |
|   \\  /    A nd           | Website:  www.openfoam.com                      |
|    \\/     M anipulation  |                                                 |
\*---------------------------------------------------------------------------*/
FoamFile
{
    version     2.0;
    format      ascii;
    arch        "LSB;label=32;scalar=64";
    class       volVectorField;
    location    "3e-07";
    object      U;
}
// * * * * * * * * * * * * * * * * * * * * * * * * * * * * * * * * * * * * * //

dimensions      [0 0 0 0 0 0 0];

internalField   nonuniform List<vector> 
84
(
(2636.33 0.319342 2.96698e-16)
(2636.02 0.325453 -3.46597e-16)
(2636.02 0.330272 -8.89477e-16)
(2636.02 0.335248 4.20437e-16)
(2636.02 0.340376 9.42605e-18)
(2636.02 0.345664 4.59264e-17)
(2636.02 0.351118 7.91977e-16)
(2636.02 0.351077 1.90181e-16)
(2636.43 -0.316439 2.90561e-16)
(2636.12 -0.323924 -3.4567e-16)
(2636.13 -0.32871 -1.04284e-15)
(2636.13 -0.333658 1.44831e-17)
(2636.13 -0.338756 -1.73974e-15)
(2636.13 -0.344013 1.74309e-16)
(2636.13 -0.349436 1.49858e-15)
(2636.13 -0.34937 3.78608e-16)
(2636.43 -0.315387 -1.5355e-15)
(2636.12 -0.324332 2.51239e-16)
(2636.12 -0.328763 5.48885e-16)
(2636.12 -0.333712 -7.51843e-18)
(2636.12 -0.338812 -5.84969e-18)
(2636.12 -0.344071 7.26921e-16)
(2636.12 -0.349496 -5.27868e-16)
(2636.13 -0.34943 -7.57799e-16)
(2636.43 -0.320149 -1.54476e-15)
(2636.12 -0.328834 7.04845e-16)
(2636.12 -0.333767 -7.99579e-18)
(2636.12 -0.338869 -1.65463e-15)
(2636.12 -0.344129 1.47022e-15)
(2636.12 -0.349555 4.25951e-16)
(2636.12 -0.34949 -5.92013e-16)
(2636.42 -0.321214 -8.68529e-16)
(2636.11 -0.328876 -4.02716e-16)
(2636.11 -0.333811 1.16111e-18)
(2636.11 -0.338915 1.23873e-19)
(2636.11 -0.344177 -4.65464e-16)
(2636.11 -0.349605 4.26791e-16)
(2636.12 -0.349539 1.11954e-15)
(2636.42 -0.304509 -5.30777e-16)
(2636.1 -0.311692 8.52181e-16)
(2636.11 -0.316372 -2.94987e-18)
(2636.11 -0.321211 1.08262e-15)
(2636.11 -0.3262 -9.45813e-16)
(2636.11 -0.331347 7.47611e-16)
(2636.11 -0.331286 -1.70657e-15)
(2636.41 -0.24582 -8.64582e-21)
(2636.09 -0.251454 8.97973e-16)
(2636.1 -0.255231 -2.93976e-18)
(2636.1 -0.259136 -2.81788e-18)
(2636.1 -0.263163 9.45474e-16)
(2636.1 -0.267316 1.5357e-16)
(2636.1 -0.26727 9.63124e-16)
(2636.4 -0.206365 -1.987e-18)
(2636.09 -0.212117 -6.67954e-19)
(2636.09 -0.215018 -2.77647e-18)
(2636.09 -0.218309 -9.0947e-19)
(2636.09 -0.221703 7.6875e-19)
(2636.09 -0.225203 -7.79876e-19)
(2636.1 -0.225167 -6.95784e-16)
(2636.4 -0.191222 1.72945e-15)
(2636.08 -0.195939 -6.06347e-18)
(2636.09 -0.19893 -1.80591e-15)
(2636.09 -0.202024 -7.77239e-16)
(2636.09 -0.205215 9.07546e-16)
(2636.09 -0.205185 -5.02003e-19)
(2636.39 -0.193667 -7.36463e-16)
(2636.08 -0.197742 2.46226e-18)
(2636.08 -0.200757 -8.78689e-16)
(2636.08 -0.203873 8.94202e-16)
(2636.08 -0.207088 1.70044e-15)
(2636.09 -0.207059 5.46848e-21)
(2636.39 -0.216691 -8.85862e-16)
(2636.08 -0.221452 2.95502e-18)
(2636.08 -0.22483 2.61221e-19)
(2636.08 -0.228323 1.67687e-15)
(2636.08 -0.231925 1.85833e-15)
(2636.09 -0.231893 2.13594e-16)
(2636.39 -0.00128298 -2.77276e-18)
(2636.08 -0.263493 3.08497e-21)
(2636.08 -0.266242 0)
(2636.08 -0.270317 1.08466e-15)
(2636.08 -0.274517 -3.97914e-18)
(2636.08 -0.27885 5.29177e-21)
(2636.08 -0.278815 -8.54664e-16)
)
;

boundaryField
{
    inlet
    {
        type            calculated;
        value           nonuniform List<vector> 0();
    }
    outlet2
    {
        type            calculated;
        value           uniform (0 0 0);
    }
    outlet1
    {
        type            calculated;
        value           uniform (0 0 0);
    }
    wall
    {
        type            calculated;
        value           uniform (0 0 0);
    }
    symmetryBottom
    {
        type            symmetry;
    }
    symmetryZ0
    {
        type            symmetry;
    }
    symmetryZ05
    {
        type            symmetry;
    }
    procBoundary0to1
    {
        type            processor;
        value           uniform (0 0 0);
    }
}


// ************************************************************************* //
