/*--------------------------------*- C++ -*----------------------------------*\
| =========                 |                                                 |
| \\      /  F ield         | OpenFOAM: The Open Source CFD Toolbox           |
|  \\    /   O peration     | Version:  2412                                  |
|   \\  /    A nd           | Website:  www.openfoam.com                      |
|    \\/     M anipulation  |                                                 |
\*---------------------------------------------------------------------------*/
FoamFile
{
    version     2.0;
    format      ascii;
    arch        "LSB;label=32;scalar=64";
    class       volScalarField;
    location    "7.2e-06";
    object      rho;
}
// * * * * * * * * * * * * * * * * * * * * * * * * * * * * * * * * * * * * * //

dimensions      [0 0 0 0 0 0 0];

internalField   nonuniform List<scalar> 
84
(
2.71608e-05
1.65757e-05
1.7814e-05
1.772e-05
1.77271e-05
1.77285e-05
1.77303e-05
1.78771e-05
2.89586e-05
1.7701e-05
1.90359e-05
1.89547e-05
1.89813e-05
1.90026e-05
1.90249e-05
1.91798e-05
2.85888e-05
1.77561e-05
1.88788e-05
1.8824e-05
1.88462e-05
1.88653e-05
1.88853e-05
1.90393e-05
2.84548e-05
1.74833e-05
1.87899e-05
1.87064e-05
1.87293e-05
1.87466e-05
1.88999e-05
2.84096e-05
1.73502e-05
1.86586e-05
1.8573e-05
1.85936e-05
1.86087e-05
1.87612e-05
2.82162e-05
1.7229e-05
1.85267e-05
1.84396e-05
1.8458e-05
1.84709e-05
1.86224e-05
2.80219e-05
1.71094e-05
1.83951e-05
1.83067e-05
1.83229e-05
1.83335e-05
1.84842e-05
2.77394e-05
1.70894e-05
1.82525e-05
1.81781e-05
1.81909e-05
1.81995e-05
1.83494e-05
2.75619e-05
1.68772e-05
1.81354e-05
1.80445e-05
1.80563e-05
1.82051e-05
2.74752e-05
1.67645e-05
1.80216e-05
1.79292e-05
1.79394e-05
1.80875e-05
2.72328e-05
1.66481e-05
1.78862e-05
1.77929e-05
1.78008e-05
1.7948e-05
2.68773e-05
1.65804e-05
1.77545e-05
1.76667e-05
1.7672e-05
1.76722e-05
1.78189e-05
)
;

boundaryField
{
    inlet
    {
        type            calculated;
        value           nonuniform List<scalar> 0();
    }
    outlet2
    {
        type            calculated;
        value           uniform 0;
    }
    outlet1
    {
        type            calculated;
        value           uniform 0;
    }
    wall
    {
        type            calculated;
        value           uniform 0;
    }
    symmetryBottom
    {
        type            symmetry;
    }
    symmetryZ0
    {
        type            symmetry;
    }
    symmetryZ05
    {
        type            symmetry;
    }
    procBoundary0to1
    {
        type            processor;
        value           uniform 0;
    }
}


// ************************************************************************* //
