/*--------------------------------*- C++ -*----------------------------------*\
| =========                 |                                                 |
| \\      /  F ield         | OpenFOAM: The Open Source CFD Toolbox           |
|  \\    /   O peration     | Version:  2412                                  |
|   \\  /    A nd           | Website:  www.openfoam.com                      |
|    \\/     M anipulation  |                                                 |
\*---------------------------------------------------------------------------*/
FoamFile
{
    version     2.0;
    format      ascii;
    arch        "LSB;label=32;scalar=64";
    class       volVectorField;
    location    "7.2e-06";
    object      rhoU;
}
// * * * * * * * * * * * * * * * * * * * * * * * * * * * * * * * * * * * * * //

dimensions      [0 0 0 0 0 0 0];

internalField   nonuniform List<vector> 
84
(
(0.0715385 0.000198724 2.03927e-19)
(0.0435146 0.000123559 -1.9225e-19)
(0.046812 0.000134518 -3.07946e-19)
(0.0465596 0.00013574 2.09816e-19)
(0.0465783 0.000137768 -3.46581e-20)
(0.0465816 0.000139812 2.74154e-20)
(0.0465858 0.000141919 2.94773e-19)
(0.0469744 0.000142829 3.07622e-20)
(0.076343 -0.000218886 2.05141e-19)
(0.0465139 -0.000138725 -1.92322e-19)
(0.0500715 -0.000150145 -4.11199e-19)
(0.049853 -0.000151901 5.97084e-20)
(0.0499239 -0.000154426 -7.63996e-19)
(0.0499802 -0.000156998 2.0596e-19)
(0.0500391 -0.000159659 6.29226e-19)
(0.0504493 -0.000160616 1.13254e-19)
(0.0753604 -0.000193232 -7.96617e-19)
(0.0466635 -0.000160447 1.66471e-19)
(0.0496549 -0.00014586 2.18582e-19)
(0.0495073 -0.000151139 -3.32314e-20)
(0.0495662 -0.000153342 -1.22479e-20)
(0.0496169 -0.000155896 2.95737e-19)
(0.0496696 -0.00015852 -2.5626e-19)
(0.0500776 -0.000159472 -2.81785e-19)
(0.0750053 -0.000201062 -7.56775e-19)
(0.0459386 -0.000140033 3.55109e-19)
(0.0494205 -0.000150486 -4.65054e-20)
(0.0491961 -0.00015226 -6.82385e-19)
(0.0492569 -0.000154803 6.96616e-19)
(0.0493028 -0.000157389 1.05798e-19)
(0.0497086 -0.000158337 -2.57008e-19)
(0.0748872 -0.000218535 -4.50886e-19)
(0.0455865 -0.00013767 -1.12228e-19)
(0.0490732 -0.000149599 1.58286e-20)
(0.0488431 -0.000151257 4.7756e-21)
(0.048898 -0.000153772 -2.31373e-19)
(0.048938 -0.000156324 2.1282e-19)
(0.0493415 -0.000157268 4.3408e-19)
(0.0743737 -0.000210644 -2.94635e-19)
(0.0452654 -0.000132404 3.72242e-19)
(0.0487235 -0.000144008 -4.87163e-20)
(0.0484895 -0.000145638 4.41948e-19)
(0.0485385 -0.000148104 -4.14373e-19)
(0.0485725 -0.000150608 3.46707e-19)
(0.0489738 -0.000151518 -7.29859e-19)
(0.0738547 -0.000168229 -1.21331e-22)
(0.0449457 -0.000106083 3.37859e-19)
(0.0483719 -0.000115081 -4.6078e-20)
(0.0481345 -0.000116407 2.37449e-21)
(0.0481775 -0.000118357 3.61304e-19)
(0.0482055 -0.00012034 3.58941e-20)
(0.0486045 -0.000121071 3.56787e-19)
(0.0731042 -0.000122123 8.41031e-21)
(0.0448923 -0.000107947 6.59138e-21)
(0.0479925 -9.51787e-05 -2.39904e-21)
(0.0477927 -9.91331e-05 -6.17641e-21)
(0.0478267 -0.000100576 -1.16714e-21)
(0.0478491 -0.000102293 3.04735e-21)
(0.0482459 -0.000102911 -2.81761e-19)
(0.0726299 -0.000116706 1.07858e-18)
(0.0443258 -8.0941e-05 -1.21755e-19)
(0.0476789 -8.71193e-05 -7.49809e-19)
(0.0474348 -8.81173e-05 -2.10248e-19)
(0.0474661 -8.95771e-05 4.20425e-19)
(0.04786 -9.01266e-05 -6.2742e-20)
(0.0724062 -0.000123181 -3.77712e-19)
(0.0440389 -7.70991e-05 4.34219e-20)
(0.0473877 -8.38414e-05 -3.45661e-19)
(0.04714 -8.46827e-05 3.91239e-19)
(0.0471673 -8.60134e-05 6.45042e-19)
(0.0475591 -8.65518e-05 -8.26978e-20)
(0.0717658 -0.000128192 -4.65379e-19)
(0.0437301 -8.92093e-05 5.83304e-20)
(0.0470288 -9.49772e-05 -3.4514e-21)
(0.0467789 -9.61142e-05 6.69054e-19)
(0.0467999 -9.76405e-05 6.67816e-19)
(0.0471894 -9.82482e-05 1.69829e-20)
(0.0708253 -2.18401e-05 -4.20996e-20)
(0.0435515 -0.000124481 3.53999e-21)
(0.0466812 -0.000109327 -2.09698e-22)
(0.0464456 -0.00011274 4.10193e-19)
(0.0464599 -0.000114337 -5.45983e-20)
(0.0464603 -0.000116119 4.49651e-21)
(0.0468485 -0.000116849 -3.35362e-19)
)
;

boundaryField
{
    inlet
    {
        type            calculated;
        value           nonuniform List<vector> 0();
    }
    outlet2
    {
        type            calculated;
        value           uniform (0 0 0);
    }
    outlet1
    {
        type            calculated;
        value           uniform (0 0 0);
    }
    wall
    {
        type            calculated;
        value           uniform (0 0 0);
    }
    symmetryBottom
    {
        type            symmetry;
    }
    symmetryZ0
    {
        type            symmetry;
    }
    symmetryZ05
    {
        type            symmetry;
    }
    procBoundary0to1
    {
        type            processor;
        value           uniform (0 0 0);
    }
}


// ************************************************************************* //
