/*--------------------------------*- C++ -*----------------------------------*\
| =========                 |                                                 |
| \\      /  F ield         | OpenFOAM: The Open Source CFD Toolbox           |
|  \\    /   O peration     | Version:  2412                                  |
|   \\  /    A nd           | Website:  www.openfoam.com                      |
|    \\/     M anipulation  |                                                 |
\*---------------------------------------------------------------------------*/
FoamFile
{
    version     2.0;
    format      ascii;
    arch        "LSB;label=32;scalar=64";
    class       volScalarField;
    location    "7.2e-06";
    object      T;
}
// * * * * * * * * * * * * * * * * * * * * * * * * * * * * * * * * * * * * * //

dimensions      [0 0 0 0 0 0 0];

internalField   nonuniform List<scalar> 
84
(
204.377
204.419
204.577
204.631
204.705
204.779
204.855
204.846
199.971
199.919
200.01
199.995
199.997
199.997
199.997
199.997
199.943
199.92
200.008
199.996
199.997
199.997
199.997
199.997
199.982
199.914
200.011
199.995
199.997
199.997
199.998
199.98
199.92
200.018
200.002
200.004
200.004
200.005
200.551
200.544
200.633
200.622
200.628
200.631
200.631
203.876
203.989
204.113
204.162
204.227
204.293
204.284
206.789
207.379
207.377
207.504
207.623
207.748
207.73
218.93
222.219
222.214
222.648
223.076
223.008
192.053
191.864
191.84
191.688
191.551
191.57
197.943
198.015
198.048
198.002
197.969
197.975
199.779
199.057
199.205
199.173
199.161
199.146
199.149
)
;

boundaryField
{
    inlet
    {
        type            calculated;
        value           nonuniform List<scalar> 0();
    }
    outlet2
    {
        type            calculated;
        value           uniform 0;
    }
    outlet1
    {
        type            calculated;
        value           uniform 0;
    }
    wall
    {
        type            calculated;
        value           uniform 0;
    }
    symmetryBottom
    {
        type            symmetry;
    }
    symmetryZ0
    {
        type            symmetry;
    }
    symmetryZ05
    {
        type            symmetry;
    }
    procBoundary0to1
    {
        type            processor;
        value           uniform 0;
    }
}


// ************************************************************************* //
