/*--------------------------------*- C++ -*----------------------------------*\
| =========                 |                                                 |
| \\      /  F ield         | OpenFOAM: The Open Source CFD Toolbox           |
|  \\    /   O peration     | Version:  2412                                  |
|   \\  /    A nd           | Website:  www.openfoam.com                      |
|    \\/     M anipulation  |                                                 |
\*---------------------------------------------------------------------------*/
FoamFile
{
    version     2.0;
    format      ascii;
    arch        "LSB;label=32;scalar=64";
    class       volVectorField;
    location    "7.2e-06";
    object      U;
}
// * * * * * * * * * * * * * * * * * * * * * * * * * * * * * * * * * * * * * //

dimensions      [0 0 0 0 0 0 0];

internalField   nonuniform List<vector> 
84
(
(2633.89 7.31658 7.50816e-15)
(2625.19 7.4542 -1.15983e-14)
(2627.82 7.55127 -1.72868e-14)
(2627.52 7.66027 1.18406e-14)
(2627.52 7.77161 -1.9551e-15)
(2627.5 7.88628 1.5464e-15)
(2627.48 8.00437 1.66254e-14)
(2627.63 7.98949 1.72076e-15)
(2636.28 -7.5586 7.08393e-15)
(2627.76 -7.83713 -1.0865e-14)
(2630.37 -7.88746 -2.16012e-14)
(2630.12 -8.01389 3.15006e-15)
(2630.16 -8.1357 -4.02498e-14)
(2630.17 -8.26194 1.08385e-14)
(2630.19 -8.39212 3.30738e-14)
(2630.33 -8.37421 5.90487e-15)
(2636.01 -6.759 -2.78647e-14)
(2628.03 -9.03618 9.37543e-15)
(2630.19 -7.72614 1.15782e-14)
(2630.01 -8.02909 -1.76537e-15)
(2630.04 -8.13649 -6.49891e-16)
(2630.06 -8.26363 1.56762e-14)
(2630.07 -8.39383 -1.35693e-14)
(2630.22 -8.3759 -1.48001e-14)
(2635.94 -7.06602 -2.65957e-14)
(2627.58 -8.00957 2.03114e-14)
(2630.16 -8.00888 -2.47502e-15)
(2629.91 -8.13944 -3.64787e-14)
(2629.94 -8.26528 3.7194e-14)
(2629.96 -8.3956 5.64359e-15)
(2630.1 -8.37766 -1.35984e-14)
(2635.98 -7.6923 -1.58709e-14)
(2627.43 -7.93475 -6.4684e-15)
(2630.05 -8.01767 8.48326e-16)
(2629.79 -8.14395 2.57126e-16)
(2629.83 -8.27014 -1.24437e-14)
(2629.84 -8.40059 1.14366e-14)
(2629.98 -8.38263 2.31372e-14)
(2635.85 -7.46533 -1.0442e-14)
(2627.28 -7.68497 2.16055e-14)
(2629.9 -7.77299 -2.62952e-15)
(2629.64 -7.89814 2.39673e-14)
(2629.67 -8.02382 -2.24495e-14)
(2629.68 -8.15384 1.87705e-14)
(2629.83 -8.13634 -3.91925e-14)
(2635.61 -6.00348 -4.32987e-18)
(2626.97 -6.20029 1.9747e-14)
(2629.61 -6.2561 -2.50491e-15)
(2629.34 -6.35872 1.29706e-16)
(2629.37 -6.45952 1.97188e-14)
(2629.37 -6.56398 1.95785e-15)
(2629.52 -6.54997 1.93023e-14)
(2635.39 -4.40253 3.0319e-16)
(2626.91 -6.31659 3.85701e-16)
(2629.37 -5.21456 -1.31436e-16)
(2629.13 -5.45342 -3.39771e-16)
(2629.15 -5.52893 -6.41605e-17)
(2629.15 -5.62067 1.67442e-16)
(2629.3 -5.60844 -1.53553e-14)
(2635.16 -4.23433 3.91329e-14)
(2626.37 -4.79587 -7.21415e-15)
(2629.05 -4.80383 -4.13451e-14)
(2628.77 -4.88334 -1.16516e-14)
(2628.79 -4.96099 2.32842e-14)
(2628.94 -4.95063 -3.4464e-15)
(2635.33 -4.48334 -1.37474e-14)
(2626.92 -4.59895 2.59011e-15)
(2629.49 -4.65227 -1.91804e-14)
(2629.23 -4.72317 2.18213e-14)
(2629.25 -4.79465 3.59566e-14)
(2629.4 -4.78518 -4.5721e-15)
(2635.27 -4.70726 -1.70889e-14)
(2626.74 -5.35853 3.50373e-15)
(2629.34 -5.31008 -1.92964e-16)
(2629.07 -5.40181 3.76022e-14)
(2629.09 -5.48518 3.75161e-14)
(2629.23 -5.47405 9.46231e-16)
(2635.14 -0.812587 -1.56637e-15)
(2626.69 -7.50773 2.13505e-16)
(2629.25 -6.1577 -1.18109e-17)
(2628.99 -6.38148 2.32184e-14)
(2629.01 -6.46993 -3.08953e-15)
(2629 -6.57073 2.54439e-16)
(2629.15 -6.5576 -1.88206e-14)
)
;

boundaryField
{
    inlet
    {
        type            calculated;
        value           nonuniform List<vector> 0();
    }
    outlet2
    {
        type            calculated;
        value           uniform (0 0 0);
    }
    outlet1
    {
        type            calculated;
        value           uniform (0 0 0);
    }
    wall
    {
        type            calculated;
        value           uniform (0 0 0);
    }
    symmetryBottom
    {
        type            symmetry;
    }
    symmetryZ0
    {
        type            symmetry;
    }
    symmetryZ05
    {
        type            symmetry;
    }
    procBoundary0to1
    {
        type            processor;
        value           uniform (0 0 0);
    }
}


// ************************************************************************* //
