/*--------------------------------*- C++ -*----------------------------------*\
| =========                 |                                                 |
| \\      /  F ield         | OpenFOAM: The Open Source CFD Toolbox           |
|  \\    /   O peration     | Version:  2412                                  |
|   \\  /    A nd           | Website:  www.openfoam.com                      |
|    \\/     M anipulation  |                                                 |
\*---------------------------------------------------------------------------*/
FoamFile
{
    version     2.0;
    format      ascii;
    arch        "LSB;label=32;scalar=64";
    class       volVectorField;
    location    "4.5e-06";
    object      rhoU;
}
// * * * * * * * * * * * * * * * * * * * * * * * * * * * * * * * * * * * * * //

dimensions      [0 0 0 0 0 0 0];

internalField   nonuniform List<vector> 
84
(
(0.0741083 -3.37099e-07 0)
(0.0293959 -5.35804e-07 0)
(0.0368344 -4.43978e-07 -1.13199e-19)
(0.074122 -0.000105645 0)
(0.0294115 -5.3427e-05 0)
(0.0368484 -6.31463e-05 -1.09293e-19)
(0.0741186 -0.000105308 0)
(0.0294096 -5.32436e-05 0)
(0.0368462 -6.29338e-05 1.49883e-19)
(0.0741186 -0.000105308 0)
(0.0294096 -5.32436e-05 0)
(0.0368462 -6.29337e-05 -1.91328e-19)
(0.0741186 -0.000105308 0)
(0.0294096 -5.32436e-05 0)
(0.0368462 -6.29337e-05 -3.02917e-19)
(0.0741186 -0.000105308 0)
(0.0294096 -5.32436e-05 0)
(0.0368462 -6.29337e-05 1.87355e-19)
(0.0741186 -0.000105308 0)
(0.0294096 -5.32436e-05 0)
(0.0368462 -6.29337e-05 -2.23336e-19)
(0.0741186 -0.000105308 0)
(0.0294096 -5.32436e-05 0)
(0.0368462 -6.29337e-05 -2.56862e-19)
(0.0741186 -0.000105308 0)
(0.0294096 -5.32436e-05 0)
(0.0368462 -6.29337e-05 1.09278e-19)
(0.0741186 -0.000105308 0)
(0.0294096 -5.32436e-05 0)
(0.0368462 -6.29337e-05 -2.21032e-19)
(0.0741186 -0.000105308 0)
(0.0294095 -5.32414e-05 0)
(0.0368462 -6.29322e-05 -5.73865e-19)
(0.0741187 -0.000105322 0)
(0.0294061 -5.29005e-05 0)
(0.0368439 -6.27125e-05 0)
(0.0569483 0.000102523 9.00537e-21)
(0.0553075 9.53642e-05 1.09096e-19)
(0.0556352 9.61121e-05 1.12291e-20)
(0.0593758 -0.000103445 8.67809e-21)
(0.0575657 -0.000101874 1.18338e-19)
(0.0579112 -0.000102342 -2.43532e-21)
(0.0591225 -0.000103038 -1.24497e-20)
(0.0573299 -0.000101477 -5.47167e-20)
(0.0576717 -0.000101862 -2.18303e-19)
(0.0588701 -0.000102621 1.59661e-20)
(0.057095 -0.000101082 -2.61151e-21)
(0.0572131 -0.000102713 1.47456e-22)
(0.0552029 5.52225e-06 1.76199e-19)
(0.0586183 -0.000102228 -3.32157e-20)
(0.0568608 -0.000100709 6.14283e-22)
(0.0569744 -0.000102327 -1.80774e-21)
(0.057225 -0.000102651 1.85403e-19)
(0.0583662 -9.7426e-05 -1.57013e-20)
(0.0566262 -9.62586e-05 -1.14113e-19)
(0.0567353 -9.78054e-05 5.1561e-21)
(0.0569851 -9.81163e-05 1.22905e-19)
(0.0581133 -7.70967e-05 1.90115e-20)
(0.0563908 -7.72976e-05 -1.51083e-21)
(0.0564953 -7.84751e-05 -2.87341e-22)
(0.0567444 -7.87274e-05 -9.72769e-22)
(0.0578648 -6.43807e-05 2.36675e-20)
(0.0561595 -6.54261e-05 -1.15962e-19)
(0.0562596 -6.63829e-05 1.23681e-19)
(0.0565069 -6.6538e-05 1.50994e-21)
(0.0576074 -5.68635e-05 -8.73949e-21)
(0.0559192 -5.8396e-05 -1.73676e-19)
(0.0560147 -5.92009e-05 -1.62627e-19)
(0.056022 -6.0069e-05 1.96751e-19)
(0.055287 5.84348e-06 1.0565e-18)
(0.0573798 -5.58297e-05 2.01925e-20)
(0.0557093 -5.742e-05 -1.68824e-19)
(0.0558008 -5.81818e-05 1.24084e-19)
(0.055805 -5.90127e-05 2.50313e-19)
(0.0560545 -5.94992e-05 1.55404e-19)
(0.0571281 -6.3656e-05 4.91536e-20)
(0.0554747 -6.46854e-05 -2.34872e-21)
(0.0555618 -6.55913e-05 2.97619e-22)
(0.0555631 -6.65912e-05 -2.38005e-22)
(0.0558628 -7.05788e-05 -1.803e-19)
(0.0568868 -7.71818e-05 1.25916e-22)
(0.0552497 -7.72281e-05 1.66704e-19)
(0.0553326 -7.83652e-05 -1.21282e-20)
(0.0555775 -7.85905e-05 -2.509e-19)
)
;

boundaryField
{
    inlet
    {
        type            calculated;
        value           uniform (0 0 0);
    }
    outlet2
    {
        type            calculated;
        value           uniform (0 0 0);
    }
    outlet1
    {
        type            calculated;
        value           nonuniform List<vector> 0();
    }
    wall
    {
        type            calculated;
        value           uniform (0 0 0);
    }
    symmetryBottom
    {
        type            symmetry;
    }
    symmetryZ0
    {
        type            symmetry;
    }
    symmetryZ05
    {
        type            symmetry;
    }
    procBoundary1to0
    {
        type            processor;
        value           uniform (0 0 0);
    }
}


// ************************************************************************* //
