/*--------------------------------*- C++ -*----------------------------------*\
| =========                 |                                                 |
| \\      /  F ield         | OpenFOAM: The Open Source CFD Toolbox           |
|  \\    /   O peration     | Version:  2412                                  |
|   \\  /    A nd           | Website:  www.openfoam.com                      |
|    \\/     M anipulation  |                                                 |
\*---------------------------------------------------------------------------*/
FoamFile
{
    version     2.0;
    format      ascii;
    arch        "LSB;label=32;scalar=64";
    class       volVectorField;
    location    "4.5e-06";
    object      U;
}
// * * * * * * * * * * * * * * * * * * * * * * * * * * * * * * * * * * * * * //

dimensions      [0 0 0 0 0 0 0];

internalField   nonuniform List<vector> 
84
(
(2636.39 -0.0119922 0)
(2616.54 -0.0476922 0)
(2626.06 -0.0316528 -8.07039e-15)
(2636.39 -3.75758 0)
(2616.55 -4.75305 0)
(2626.06 -4.50022 -7.78892e-15)
(2636.39 -3.74578 0)
(2616.55 -4.73705 0)
(2626.06 -4.48534 1.06823e-14)
(2636.39 -3.74578 0)
(2616.55 -4.73705 0)
(2626.06 -4.48534 -1.36361e-14)
(2636.39 -3.74578 0)
(2616.55 -4.73705 0)
(2626.06 -4.48534 -2.15892e-14)
(2636.39 -3.74578 0)
(2616.55 -4.73705 0)
(2626.06 -4.48534 1.33529e-14)
(2636.39 -3.74578 0)
(2616.55 -4.73705 0)
(2626.06 -4.48534 -1.59173e-14)
(2636.39 -3.74578 0)
(2616.55 -4.73705 0)
(2626.06 -4.48534 -1.83068e-14)
(2636.39 -3.74578 0)
(2616.55 -4.73705 0)
(2626.06 -4.48534 7.7883e-15)
(2636.39 -3.74578 0)
(2616.55 -4.73705 0)
(2626.06 -4.48534 -1.57531e-14)
(2636.39 -3.74578 0)
(2616.55 -4.73685 0)
(2626.06 -4.48523 -4.08998e-14)
(2636.39 -3.74627 0)
(2616.55 -4.70708 0)
(2626.06 -4.46985 0)
(2631.72 4.73786 4.1616e-16)
(2630.86 4.53627 5.18948e-15)
(2631.01 4.54517 5.31026e-16)
(2633.29 -4.58773 3.8487e-16)
(2632.36 -4.65851 5.41137e-15)
(2632.51 -4.65225 -1.10704e-16)
(2633.22 -4.58915 -5.54491e-16)
(2632.3 -4.65932 -2.51231e-15)
(2632.44 -4.64951 -9.9645e-15)
(2633.15 -4.59006 7.14135e-16)
(2632.23 -4.66016 -1.20398e-16)
(2632.31 -4.7257 6.78431e-18)
(2631.71 0.263264 8.40003e-15)
(2633.08 -4.59201 -1.49202e-15)
(2632.17 -4.66198 2.84361e-17)
(2632.25 -4.72758 -8.35188e-17)
(2632.32 -4.72187 8.52843e-15)
(2632.99 -4.39504 -7.08311e-16)
(2632.08 -4.47426 -5.30417e-15)
(2632.16 -4.53755 2.3921e-16)
(2632.23 -4.53213 5.67718e-15)
(2632.84 -3.49289 8.6132e-16)
(2631.92 -3.6077 -7.05146e-17)
(2632 -3.65599 -1.33866e-17)
(2632.07 -3.65174 -4.51215e-17)
(2632.73 -2.92919 1.07682e-15)
(2631.81 -3.06607 -5.43436e-15)
(2631.89 -3.10547 5.78591e-15)
(2631.96 -3.09918 7.03295e-17)
(2632.62 -2.59863 -3.9939e-16)
(2631.67 -2.74823 -8.17352e-15)
(2631.74 -2.78144 -7.64071e-15)
(2631.74 -2.82186 9.24276e-15)
(2631.69 0.278153 5.02902e-14)
(2632.67 -2.56155 9.26463e-16)
(2631.82 -2.71263 -7.97557e-15)
(2631.88 -2.74418 5.85249e-15)
(2631.88 -2.78317 1.18053e-14)
(2631.96 -2.7937 7.29678e-15)
(2632.62 -2.93344 2.26513e-15)
(2631.75 -3.06871 -1.11424e-16)
(2631.82 -3.10689 1.40975e-17)
(2631.81 -3.15417 -1.12734e-17)
(2631.9 -3.32522 -8.49459e-15)
(2632.58 -3.57178 5.8271e-18)
(2631.71 -3.6786 7.94059e-15)
(2631.77 -3.72727 -5.76849e-16)
(2631.85 -3.72161 -1.18812e-14)
)
;

boundaryField
{
    inlet
    {
        type            calculated;
        value           uniform (0 0 0);
    }
    outlet2
    {
        type            calculated;
        value           uniform (0 0 0);
    }
    outlet1
    {
        type            calculated;
        value           nonuniform List<vector> 0();
    }
    wall
    {
        type            calculated;
        value           uniform (0 0 0);
    }
    symmetryBottom
    {
        type            symmetry;
    }
    symmetryZ0
    {
        type            symmetry;
    }
    symmetryZ05
    {
        type            symmetry;
    }
    procBoundary1to0
    {
        type            processor;
        value           uniform (0 0 0);
    }
}


// ************************************************************************* //
