/*--------------------------------*- C++ -*----------------------------------*\
| =========                 |                                                 |
| \\      /  F ield         | OpenFOAM: The Open Source CFD Toolbox           |
|  \\    /   O peration     | Version:  2412                                  |
|   \\  /    A nd           | Website:  www.openfoam.com                      |
|    \\/     M anipulation  |                                                 |
\*---------------------------------------------------------------------------*/
FoamFile
{
    version     2.0;
    format      ascii;
    arch        "LSB;label=32;scalar=64";
    class       volScalarField;
    location    "5e-06";
    object      E_dof0;
}
// * * * * * * * * * * * * * * * * * * * * * * * * * * * * * * * * * * * * * //

dimensions      [0 0 0 0 0 0 0];

internalField   nonuniform List<scalar> 
84
(
99.4362
33.7098
45.863
99.4584
33.7324
45.8835
99.4527
33.7295
45.88
99.4527
33.7295
45.88
99.4527
33.7295
45.88
99.4527
33.7295
45.88
99.4527
33.7295
45.88
99.4527
33.7295
45.88
99.4527
33.7295
45.88
99.4527
33.7295
45.88
99.4527
33.7294
45.88
99.4529
33.7244
45.877
74.3168
71.6747
72.1834
77.8828
74.9521
75.4925
77.5101
74.6094
75.1433
77.1388
74.2681
74.4736
71.53
76.7687
73.9279
74.1264
74.4918
76.4007
73.5896
73.7811
74.1453
76.0412
73.2588
73.4435
73.8065
75.6895
72.935
73.1131
73.4732
75.3676
72.636
72.8083
72.8182
71.6591
74.9142
72.2255
72.3888
72.3926
72.7557
74.5711
71.9091
72.066
72.0661
72.5135
74.2238
71.589
71.7396
72.0959
)
;

boundaryField
{
    inlet
    {
        type            calculated;
        value           uniform 99.4306;
    }
    outlet2
    {
        type            calculated;
        value           uniform 99.4306;
    }
    outlet1
    {
        type            calculated;
        value           nonuniform List<scalar> 0();
    }
    wall
    {
        type            calculated;
        value           uniform 99.4306;
    }
    symmetryBottom
    {
        type            symmetry;
    }
    symmetryZ0
    {
        type            symmetry;
    }
    symmetryZ05
    {
        type            symmetry;
    }
    procBoundary1to0
    {
        type            processor;
        value           uniform 99.4306;
    }
}


// ************************************************************************* //
