/*--------------------------------*- C++ -*----------------------------------*\
| =========                 |                                                 |
| \\      /  F ield         | OpenFOAM: The Open Source CFD Toolbox           |
|  \\    /   O peration     | Version:  2412                                  |
|   \\  /    A nd           | Website:  www.openfoam.com                      |
|    \\/     M anipulation  |                                                 |
\*---------------------------------------------------------------------------*/
FoamFile
{
    version     2.0;
    format      ascii;
    arch        "LSB;label=32;scalar=64";
    class       volVectorField;
    location    "5e-06";
    object      rhoU_dof0;
}
// * * * * * * * * * * * * * * * * * * * * * * * * * * * * * * * * * * * * * //

dimensions      [0 0 0 0 0 0 0];

internalField   nonuniform List<vector> 
84
(
(0.074109 -4.08348e-07 0)
(0.0253528 -5.80104e-07 0)
(0.0343206 -4.78861e-07 -1.17885e-19)
(0.0741256 -0.000115104 0)
(0.0253697 -5.21876e-05 0)
(0.034336 -6.52133e-05 -1.13978e-19)
(0.0741214 -0.000114699 0)
(0.0253676 -5.19877e-05 0)
(0.0343334 -6.49701e-05 1.54567e-19)
(0.0741214 -0.000114699 0)
(0.0253676 -5.19877e-05 0)
(0.0343334 -6.49701e-05 -2.01495e-19)
(0.0741214 -0.000114699 0)
(0.0253676 -5.19877e-05 0)
(0.0343334 -6.49701e-05 -3.11511e-19)
(0.0741214 -0.000114699 0)
(0.0253676 -5.19877e-05 0)
(0.0343334 -6.49701e-05 1.96723e-19)
(0.0741214 -0.000114699 0)
(0.0253676 -5.19877e-05 0)
(0.0343334 -6.49701e-05 -2.25696e-19)
(0.0741214 -0.000114699 0)
(0.0253676 -5.19877e-05 0)
(0.0343334 -6.49701e-05 -2.60773e-19)
(0.0741214 -0.000114699 0)
(0.0253676 -5.19877e-05 0)
(0.0343334 -6.49701e-05 1.1552e-19)
(0.0741214 -0.000114699 0)
(0.0253676 -5.19877e-05 0)
(0.0343334 -6.49701e-05 -2.24965e-19)
(0.0741214 -0.000114699 0)
(0.0253676 -5.1985e-05 0)
(0.0343334 -6.49684e-05 -5.97309e-19)
(0.0741216 -0.000114714 0)
(0.0253638 -5.16189e-05 0)
(0.0343312 -6.47475e-05 0)
(0.0554762 0.000111114 1.07285e-20)
(0.0535251 0.000102163 1.18957e-19)
(0.0539014 0.000103136 1.22752e-20)
(0.0581166 -0.000112503 1.03329e-20)
(0.0559531 -0.000110046 1.29469e-19)
(0.0563526 -0.000110657 -2.94386e-21)
(0.0578402 -0.000112008 -1.46977e-20)
(0.0556987 -0.000109568 -6.02577e-20)
(0.0560935 -0.000110076 -2.25347e-19)
(0.0575648 -0.000111501 1.88473e-20)
(0.0554454 -0.000109092 -3.03319e-21)
(0.0555965 -0.00011092 1.87063e-22)
(0.0534125 6.68946e-06 1.93416e-19)
(0.0572902 -0.000111023 -3.29422e-20)
(0.0551928 -0.000108644 7.71785e-22)
(0.0553388 -0.000110456 -1.96858e-21)
(0.05561 -0.000110846 2.03209e-19)
(0.0570152 -0.000105903 -1.85394e-20)
(0.05494 -0.000103957 -1.23895e-19)
(0.0550807 -0.00010569 6.64727e-21)
(0.055351 -0.000106065 1.35051e-19)
(0.0567393 -8.36605e-05 2.23023e-20)
(0.0546861 -8.34446e-05 -1.95363e-21)
(0.0548217 -8.47503e-05 -2.09778e-22)
(0.055091 -8.50552e-05 -1.06623e-21)
(0.0564687 -6.98414e-05 2.75551e-20)
(0.0544371 -7.06836e-05 -1.27719e-19)
(0.0545676 -7.17371e-05 1.36929e-19)
(0.0548348 -7.1924e-05 1.76897e-21)
(0.056187 -6.14634e-05 -1.03875e-20)
(0.0541771 -6.29352e-05 -1.89106e-19)
(0.0543023 -6.3809e-05 -1.75617e-19)
(0.0543088 -6.47463e-05 2.10051e-19)
(0.0535143 7.06803e-06 1.12556e-18)
(0.0559417 -6.0127e-05 2.35513e-20)
(0.0539537 -6.16909e-05 -1.8347e-19)
(0.0540743 -6.25096e-05 1.32946e-19)
(0.0540775 -6.34012e-05 2.61776e-19)
(0.0543479 -6.39957e-05 1.6624e-19)
(0.0556671 -6.86965e-05 5.7856e-20)
(0.0537006 -6.955e-05 -3.12343e-21)
(0.053816 -7.05362e-05 3.5508e-22)
(0.0538163 -7.16189e-05 -2.95661e-22)
(0.054148 -7.646e-05 -1.97792e-19)
(0.0554051 -8.33399e-05 1.36492e-22)
(0.0534592 -8.29668e-05 1.80983e-19)
(0.0535698 -8.42176e-05 -1.4716e-20)
(0.0538342 -8.44883e-05 -2.62897e-19)
)
;

boundaryField
{
    inlet
    {
        type            calculated;
        value           uniform (0.0741049 0 0);
    }
    outlet2
    {
        type            calculated;
        value           uniform (0.0741049 0 0);
    }
    outlet1
    {
        type            calculated;
        value           nonuniform List<vector> 0();
    }
    wall
    {
        type            calculated;
        value           uniform (0.0741049 0 0);
    }
    symmetryBottom
    {
        type            symmetry;
    }
    symmetryZ0
    {
        type            symmetry;
    }
    symmetryZ05
    {
        type            symmetry;
    }
    procBoundary1to0
    {
        type            processor;
        value           uniform (0.0741049 0 0);
    }
}


// ************************************************************************* //
