/*--------------------------------*- C++ -*----------------------------------*\
| =========                 |                                                 |
| \\      /  F ield         | OpenFOAM: The Open Source CFD Toolbox           |
|  \\    /   O peration     | Version:  2412                                  |
|   \\  /    A nd           | Website:  www.openfoam.com                      |
|    \\/     M anipulation  |                                                 |
\*---------------------------------------------------------------------------*/
FoamFile
{
    version     2.0;
    format      ascii;
    arch        "LSB;label=32;scalar=64";
    class       volVectorField;
    location    "5e-06";
    object      U;
}
// * * * * * * * * * * * * * * * * * * * * * * * * * * * * * * * * * * * * * //

dimensions      [0 0 0 0 0 0 0];

internalField   nonuniform List<vector> 
84
(
(2636.39 -0.0145267 0)
(2611.86 -0.0597625 0)
(2625.27 -0.0366293 -9.01734e-15)
(2636.39 -4.09383 0)
(2611.86 -5.37281 0)
(2625.27 -4.98609 -8.71455e-15)
(2636.39 -4.07968 0)
(2611.86 -5.35269 0)
(2625.27 -4.96787 1.18188e-14)
(2636.39 -4.07968 0)
(2611.86 -5.35268 0)
(2625.27 -4.96787 -1.54071e-14)
(2636.39 -4.07968 0)
(2611.86 -5.35268 0)
(2625.27 -4.96787 -2.38194e-14)
(2636.39 -4.07968 0)
(2611.86 -5.35268 0)
(2625.27 -4.96787 1.50422e-14)
(2636.39 -4.07968 0)
(2611.86 -5.35268 0)
(2625.27 -4.96787 -1.72576e-14)
(2636.39 -4.07968 0)
(2611.86 -5.35268 0)
(2625.27 -4.96787 -1.99397e-14)
(2636.39 -4.07968 0)
(2611.86 -5.35268 0)
(2625.27 -4.96787 8.83311e-15)
(2636.39 -4.07968 0)
(2611.86 -5.35268 0)
(2625.27 -4.96787 -1.72017e-14)
(2636.39 -4.07968 0)
(2611.86 -5.35241 0)
(2625.27 -4.96774 -4.56726e-14)
(2636.39 -4.0802 0)
(2611.86 -5.3155 0)
(2625.27 -4.95118 0)
(2631.27 5.27021 5.08859e-16)
(2630.23 5.02029 5.84555e-15)
(2630.41 5.03309 5.99034e-16)
(2633.03 -5.09706 4.68142e-16)
(2631.9 -5.1763 6.08992e-15)
(2632.08 -5.16849 -1.375e-16)
(2632.95 -5.09875 -6.69056e-16)
(2631.82 -5.17719 -2.84724e-15)
(2632.01 -5.16495 -1.05737e-14)
(2632.87 -5.09978 8.62028e-16)
(2631.75 -5.17813 -1.43972e-16)
(2631.86 -5.25078 8.8553e-18)
(2631.18 0.329533 9.52799e-15)
(2632.79 -5.10211 -1.51387e-15)
(2631.68 -5.18029 3.67999e-17)
(2631.79 -5.25302 -9.36213e-17)
(2631.87 -5.24601 9.61734e-15)
(2632.69 -4.89009 -8.56059e-16)
(2631.58 -4.97947 -5.93446e-15)
(2631.69 -5.04974 3.17598e-16)
(2631.77 -5.04308 6.42124e-15)
(2632.52 -3.88157 1.03475e-15)
(2631.4 -4.01521 -9.40053e-17)
(2631.51 -4.06812 -1.00696e-17)
(2631.59 -4.06292 -5.09314e-17)
(2632.4 -3.25579 1.28453e-15)
(2631.28 -3.41657 -6.17347e-15)
(2631.38 -3.45933 6.60306e-15)
(2631.46 -3.45156 8.48911e-17)
(2632.27 -2.87946 -4.86639e-16)
(2631.11 -3.05644 -9.18391e-15)
(2631.21 -3.09186 -8.50949e-15)
(2631.21 -3.13689 1.01768e-14)
(2631.16 0.347517 5.53411e-14)
(2632.34 -2.82928 1.10821e-15)
(2631.3 -3.00863 -8.94772e-15)
(2631.39 -3.04187 6.46947e-15)
(2631.39 -3.08507 1.27379e-14)
(2631.48 -3.09861 8.04918e-15)
(2632.28 -3.24839 2.73578e-15)
(2631.22 -3.4078 -1.53042e-16)
(2631.31 -3.44884 1.73615e-17)
(2631.31 -3.50175 -1.44561e-17)
(2631.41 -3.7157 -9.61201e-15)
(2632.23 -3.95938 6.48455e-18)
(2631.17 -4.08348 8.90765e-15)
(2631.26 -4.13664 -7.22825e-16)
(2631.34 -4.12968 -1.285e-14)
)
;

boundaryField
{
    inlet
    {
        type            calculated;
        value           uniform (0 0 0);
    }
    outlet2
    {
        type            calculated;
        value           uniform (0 0 0);
    }
    outlet1
    {
        type            calculated;
        value           nonuniform List<vector> 0();
    }
    wall
    {
        type            calculated;
        value           uniform (0 0 0);
    }
    symmetryBottom
    {
        type            symmetry;
    }
    symmetryZ0
    {
        type            symmetry;
    }
    symmetryZ05
    {
        type            symmetry;
    }
    procBoundary1to0
    {
        type            processor;
        value           uniform (0 0 0);
    }
}


// ************************************************************************* //
