/*--------------------------------*- C++ -*----------------------------------*\
| =========                 |                                                 |
| \\      /  F ield         | OpenFOAM: The Open Source CFD Toolbox           |
|  \\    /   O peration     | Version:  2412                                  |
|   \\  /    A nd           | Website:  www.openfoam.com                      |
|    \\/     M anipulation  |                                                 |
\*---------------------------------------------------------------------------*/
FoamFile
{
    version     2.0;
    format      ascii;
    arch        "LSB;label=32;scalar=64";
    class       volScalarField;
    location    "9.3e-06";
    object      rho_dof0;
}
// * * * * * * * * * * * * * * * * * * * * * * * * * * * * * * * * * * * * * //

dimensions      [0 0 0 0 0 0 0];

internalField   nonuniform List<scalar> 
84
(
3.35303e-05
2.17108e-06
4.9251e-06
3.35419e-05
2.19478e-06
4.73224e-06
3.35489e-05
2.19296e-06
4.75712e-06
3.35492e-05
2.19016e-06
4.78221e-06
3.35495e-05
2.18736e-06
4.80727e-06
3.35497e-05
2.18458e-06
4.83218e-06
3.355e-05
2.18181e-06
4.85695e-06
3.35503e-05
2.17905e-06
4.88158e-06
3.35505e-05
2.1763e-06
4.90607e-06
3.35508e-05
2.17356e-06
4.93043e-06
3.35511e-05
2.17083e-06
4.95465e-06
3.35515e-05
2.16807e-06
4.97871e-06
1.66824e-05
1.56684e-05
1.49009e-05
1.78661e-05
1.67415e-05
1.59181e-05
1.77311e-05
1.66187e-05
1.58165e-05
1.75786e-05
1.64374e-05
1.66715e-05
1.41255e-05
1.74257e-05
1.63048e-05
1.64194e-05
1.55324e-05
1.72743e-05
1.61681e-05
1.62773e-05
1.54197e-05
1.71241e-05
1.60325e-05
1.61382e-05
1.52889e-05
1.69752e-05
1.5898e-05
1.59999e-05
1.51654e-05
1.68274e-05
1.57657e-05
1.58265e-05
1.5918e-05
1.43372e-05
1.6681e-05
1.56333e-05
1.56938e-05
1.57306e-05
1.4901e-05
1.65357e-05
1.55021e-05
1.55599e-05
1.55927e-05
1.47912e-05
1.63918e-05
1.53712e-05
1.54593e-05
1.46697e-05
)
;

boundaryField
{
    inlet
    {
        type            calculated;
        value           uniform 2.81085e-05;
    }
    outlet2
    {
        type            calculated;
        value           uniform 2.81085e-05;
    }
    outlet1
    {
        type            calculated;
        value           nonuniform List<scalar> 0();
    }
    wall
    {
        type            calculated;
        value           uniform 2.81085e-05;
    }
    symmetryBottom
    {
        type            symmetry;
    }
    symmetryZ0
    {
        type            symmetry;
    }
    symmetryZ05
    {
        type            symmetry;
    }
    procBoundary1to0
    {
        type            processor;
        value           uniform 2.81085e-05;
    }
}


// ************************************************************************* //
