/*--------------------------------*- C++ -*----------------------------------*\
| =========                 |                                                 |
| \\      /  F ield         | OpenFOAM: The Open Source CFD Toolbox           |
|  \\    /   O peration     | Version:  2412                                  |
|   \\  /    A nd           | Website:  www.openfoam.com                      |
|    \\/     M anipulation  |                                                 |
\*---------------------------------------------------------------------------*/
FoamFile
{
    version     2.0;
    format      ascii;
    arch        "LSB;label=32;scalar=64";
    class       volVectorField;
    location    "9.3e-06";
    object      rhoU;
}
// * * * * * * * * * * * * * * * * * * * * * * * * * * * * * * * * * * * * * //

dimensions      [0 0 0 0 0 0 0];

internalField   nonuniform List<vector> 
84
(
(0.0885458 1.92643e-07 -3.74324e-21)
(0.00547126 -4.52143e-07 2.55021e-20)
(0.0128145 1.39168e-07 -1.23369e-19)
(0.0885762 -0.000262978 -3.96227e-21)
(0.00553446 -2.71536e-05 2.68874e-20)
(0.0123007 -4.55027e-05 -1.28826e-19)
(0.0885949 -0.000263035 5.20666e-21)
(0.00552948 -2.71877e-05 -3.527e-20)
(0.0123668 -4.52687e-05 1.68223e-19)
(0.0885956 -0.000263045 -6.7991e-21)
(0.00552199 -2.7164e-05 4.60727e-20)
(0.0124335 -4.54937e-05 -2.21852e-19)
(0.0885963 -0.000263048 -1.20685e-20)
(0.00551451 -2.71388e-05 8.10667e-20)
(0.0125002 -4.57233e-05 -3.81522e-19)
(0.088597 -0.00026305 6.60984e-21)
(0.00550707 -2.71138e-05 -4.44601e-20)
(0.0125664 -4.59504e-05 2.11492e-19)
(0.0885977 -0.000263052 -8.8583e-21)
(0.00549965 -2.70889e-05 5.99147e-20)
(0.0126323 -4.61761e-05 -2.85091e-19)
(0.0885985 -0.000263055 -1.02805e-20)
(0.00549227 -2.7064e-05 6.94874e-20)
(0.0126979 -4.64006e-05 -3.31963e-19)
(0.0885992 -0.000263057 3.82432e-21)
(0.00548492 -2.70393e-05 -2.57513e-20)
(0.012763 -4.6624e-05 1.21691e-19)
(0.0885999 -0.000263059 -8.75012e-21)
(0.0054776 -2.70146e-05 5.98148e-20)
(0.0128278 -4.6846e-05 -2.9028e-19)
(0.0886006 -0.000263062 -2.26649e-20)
(0.00547028 -2.69899e-05 1.54135e-19)
(0.0128922 -4.70667e-05 -7.40451e-19)
(0.0886017 -0.000263295 7.78128e-24)
(0.0054629 -2.65668e-05 -1.48541e-22)
(0.0129562 -4.69824e-05 2.18884e-21)
(0.0438497 -3.10092e-06 -2.24513e-21)
(0.0411547 -2.93965e-06 1.93001e-19)
(0.0391074 -2.82643e-06 -2.47359e-20)
(0.0469889 -0.000166264 -1.69701e-21)
(0.0439984 -0.000158643 1.96372e-19)
(0.0418012 -0.000150082 -2.88039e-20)
(0.0466318 -0.000168032 -1.13385e-20)
(0.043674 -0.000160199 -6.65643e-20)
(0.0415334 -0.000153604 -2.78286e-19)
(0.0462283 -0.000166677 2.20393e-20)
(0.0431929 -0.000157743 -3.70145e-21)
(0.0438175 -0.000176441 -2.83446e-20)
(0.0370581 4.93427e-05 3.7906e-19)
(0.0458238 -0.000165231 -5.14692e-20)
(0.0428424 -0.000157095 2.16035e-21)
(0.0431491 -0.000160994 -2.75215e-20)
(0.0407822 -0.000147685 3.34521e-19)
(0.045423 -0.000163818 -7.25305e-21)
(0.0424811 -0.000155816 -1.91126e-19)
(0.0427732 -0.000159293 -7.19777e-21)
(0.0404846 -0.000150086 2.27691e-19)
(0.0450257 -0.000162418 2.78663e-20)
(0.0421226 -0.00015453 -3.80063e-21)
(0.0424054 -0.000157949 -1.68896e-21)
(0.0401392 -0.000148882 -1.33055e-22)
(0.0446316 -0.000161029 4.90969e-20)
(0.0417672 -0.000153257 -2.09353e-19)
(0.0420401 -0.000156547 2.01605e-19)
(0.0398131 -0.000149302 1.06752e-21)
(0.0442408 -0.00015965 9.75789e-21)
(0.0414176 -0.000152032 -2.61355e-19)
(0.04158 -0.000154082 -2.75755e-19)
(0.0418243 -0.000171706 1.6327e-19)
(0.0376222 4.82841e-05 1.80719e-18)
(0.0438534 -0.000158285 5.14412e-20)
(0.0410678 -0.000150754 -2.94717e-19)
(0.0412292 -0.000153439 1.79768e-19)
(0.0413281 -0.000156391 4.29186e-19)
(0.0391147 -0.000145785 2.95723e-19)
(0.0434692 -0.00015693 7.55548e-20)
(0.0407211 -0.000149508 -4.64391e-21)
(0.0408754 -0.000152213 2.9966e-23)
(0.0409634 -0.000153648 1.96147e-20)
(0.038825 -0.000162362 -2.39503e-19)
(0.0430885 -0.000155553 -2.17941e-20)
(0.0403749 -0.000148195 2.85498e-19)
(0.040611 -0.000150484 1.33793e-20)
(0.0385041 -0.000161251 -4.62034e-19)
)
;

boundaryField
{
    inlet
    {
        type            calculated;
        value           uniform (0 0 0);
    }
    outlet2
    {
        type            calculated;
        value           uniform (0 0 0);
    }
    outlet1
    {
        type            calculated;
        value           nonuniform List<vector> 0();
    }
    wall
    {
        type            calculated;
        value           uniform (0 0 0);
    }
    symmetryBottom
    {
        type            symmetry;
    }
    symmetryZ0
    {
        type            symmetry;
    }
    symmetryZ05
    {
        type            symmetry;
    }
    procBoundary1to0
    {
        type            processor;
        value           uniform (0 0 0);
    }
}


// ************************************************************************* //
