/*--------------------------------*- C++ -*----------------------------------*\
| =========                 |                                                 |
| \\      /  F ield         | OpenFOAM: The Open Source CFD Toolbox           |
|  \\    /   O peration     | Version:  2412                                  |
|   \\  /    A nd           | Website:  www.openfoam.com                      |
|    \\/     M anipulation  |                                                 |
\*---------------------------------------------------------------------------*/
FoamFile
{
    version     2.0;
    format      ascii;
    arch        "LSB;label=32;scalar=64";
    class       volScalarField;
    location    "9.3e-06";
    object      T;
}
// * * * * * * * * * * * * * * * * * * * * * * * * * * * * * * * * * * * * * //

dimensions      [0 0 0 0 0 0 0];

internalField   nonuniform List<scalar> 
84
(
200.062
181.028
197.51
200.02
180.976
199.143
200.047
180.959
199.226
200.047
180.887
199.256
200.047
180.816
199.286
200.047
180.744
199.316
200.048
180.672
199.344
200.048
180.601
199.372
200.048
180.529
199.399
200.048
180.457
199.425
200.048
180.385
199.45
200.048
180.317
199.476
203.575
203.417
203.313
200.041
199.999
199.907
200.035
199.995
199.91
200.036
199.986
199.997
199.787
200.036
199.986
200.009
199.855
200.036
199.986
200.005
199.901
200.035
199.986
200.005
199.902
200.035
199.986
200.005
199.908
200.035
199.987
199.996
199.991
199.819
200.035
199.987
199.996
200.008
199.854
200.035
199.987
199.996
200.009
199.832
200.035
199.987
200.006
199.89
)
;

boundaryField
{
    inlet
    {
        type            calculated;
        value           uniform 0;
    }
    outlet2
    {
        type            calculated;
        value           uniform 0;
    }
    outlet1
    {
        type            calculated;
        value           nonuniform List<scalar> 0();
    }
    wall
    {
        type            calculated;
        value           uniform 0;
    }
    symmetryBottom
    {
        type            symmetry;
    }
    symmetryZ0
    {
        type            symmetry;
    }
    symmetryZ05
    {
        type            symmetry;
    }
    procBoundary1to0
    {
        type            processor;
        value           uniform 0;
    }
}


// ************************************************************************* //
