/*--------------------------------*- C++ -*----------------------------------*\
| =========                 |                                                 |
| \\      /  F ield         | OpenFOAM: The Open Source CFD Toolbox           |
|  \\    /   O peration     | Version:  2412                                  |
|   \\  /    A nd           | Website:  www.openfoam.com                      |
|    \\/     M anipulation  |                                                 |
\*---------------------------------------------------------------------------*/
FoamFile
{
    version     2.0;
    format      ascii;
    arch        "LSB;label=32;scalar=64";
    class       volVectorField;
    location    "9.3e-06";
    object      U;
}
// * * * * * * * * * * * * * * * * * * * * * * * * * * * * * * * * * * * * * //

dimensions      [0 0 0 0 0 0 0];

internalField   nonuniform List<vector> 
84
(
(2640.77 0.00574533 -1.11638e-16)
(2520.06 -0.208257 1.17463e-14)
(2601.87 0.0282568 -2.5049e-14)
(2640.77 -7.84031 -1.18129e-16)
(2521.65 -12.3719 1.22506e-14)
(2599.34 -9.61547 -2.72229e-14)
(2640.77 -7.84033 1.55196e-16)
(2521.47 -12.3977 -1.60833e-14)
(2599.63 -9.51599 3.53624e-14)
(2640.77 -7.84058 -2.02661e-16)
(2521.27 -12.4028 2.10362e-14)
(2599.95 -9.51312 -4.63911e-14)
(2640.77 -7.84059 -3.59722e-16)
(2521.08 -12.4071 3.70614e-14)
(2600.27 -9.51129 -7.93636e-14)
(2640.77 -7.8406 1.97016e-16)
(2520.88 -12.4114 -2.03518e-14)
(2600.58 -9.50925 4.37675e-14)
(2640.77 -7.8406 -2.64033e-16)
(2520.68 -12.4158 2.7461e-14)
(2600.88 -9.50724 -5.86976e-14)
(2640.77 -7.84061 -3.06421e-16)
(2520.49 -12.4201 3.18888e-14)
(2601.18 -9.50526 -6.80032e-14)
(2640.77 -7.84062 1.13987e-16)
(2520.29 -12.4244 -1.18326e-14)
(2601.47 -9.50332 2.48041e-14)
(2640.77 -7.84063 -2.60802e-16)
(2520.1 -12.4287 2.75192e-14)
(2601.76 -9.50139 -5.88753e-14)
(2640.77 -7.84064 -6.75533e-16)
(2519.91 -12.433 7.10027e-14)
(2602.05 -9.49951 -1.49446e-13)
(2640.77 -7.8475 2.31921e-19)
(2519.71 -12.2537 -6.8513e-17)
(2602.33 -9.43665 4.39641e-16)
(2628.5 -0.185879 -1.34581e-16)
(2626.61 -0.187617 1.23179e-14)
(2624.5 -0.189682 -1.66003e-15)
(2630.05 -9.30609 -9.49846e-17)
(2628.11 -9.47602 1.17296e-14)
(2626.02 -9.42838 -1.80951e-15)
(2629.94 -9.47667 -6.3947e-16)
(2628 -9.63963 -4.00538e-15)
(2625.96 -9.71163 -1.75947e-14)
(2629.8 -9.48179 1.25375e-15)
(2627.72 -9.59658 -2.25184e-16)
(2628.29 -10.5834 -1.70019e-15)
(2623.49 3.49317 2.68351e-14)
(2629.66 -9.48201 -2.95363e-15)
(2627.6 -9.6349 1.32498e-16)
(2627.93 -9.80511 -1.67616e-15)
(2625.61 -9.50816 2.15369e-14)
(2629.52 -9.48336 -4.19875e-16)
(2627.47 -9.63726 -1.18212e-14)
(2627.79 -9.78621 -4.42197e-16)
(2625.51 -9.73339 1.47662e-14)
(2629.37 -9.48476 1.62732e-15)
(2627.33 -9.63857 -2.37058e-16)
(2627.65 -9.7873 -1.04657e-16)
(2625.38 -9.73786 -8.7027e-18)
(2629.23 -9.48615 2.89228e-15)
(2627.2 -9.64 -1.31686e-14)
(2627.51 -9.78423 1.26003e-14)
(2625.26 -9.84491 7.03917e-17)
(2629.09 -9.48749 5.7988e-16)
(2627.07 -9.64322 -1.65775e-14)
(2627.24 -9.73573 -1.74236e-14)
(2627.48 -10.7869 1.02569e-14)
(2624.09 3.36774 1.26049e-13)
(2628.95 -9.48892 3.08382e-15)
(2626.94 -9.64314 -1.88519e-14)
(2627.11 -9.77709 1.14547e-14)
(2627.23 -9.94181 2.72834e-14)
(2624.97 -9.78356 1.98458e-14)
(2628.8 -9.49032 4.56918e-15)
(2626.8 -9.64432 -2.99566e-16)
(2626.97 -9.78239 1.92585e-18)
(2627.09 -9.85386 1.25794e-15)
(2624.88 -10.9769 -1.61923e-14)
(2628.66 -9.48969 -1.32957e-15)
(2626.66 -9.64111 1.85735e-14)
(2626.96 -9.73419 8.65453e-16)
(2624.75 -10.9922 -3.14958e-14)
)
;

boundaryField
{
    inlet
    {
        type            calculated;
        value           uniform (0 0 0);
    }
    outlet2
    {
        type            calculated;
        value           uniform (0 0 0);
    }
    outlet1
    {
        type            calculated;
        value           nonuniform List<vector> 0();
    }
    wall
    {
        type            calculated;
        value           uniform (0 0 0);
    }
    symmetryBottom
    {
        type            symmetry;
    }
    symmetryZ0
    {
        type            symmetry;
    }
    symmetryZ05
    {
        type            symmetry;
    }
    procBoundary1to0
    {
        type            processor;
        value           uniform (0 0 0);
    }
}


// ************************************************************************* //
