/*--------------------------------*- C++ -*----------------------------------*\
| =========                 |                                                 |
| \\      /  F ield         | OpenFOAM: The Open Source CFD Toolbox           |
|  \\    /   O peration     | Version:  2412                                  |
|   \\  /    A nd           | Website:  www.openfoam.com                      |
|    \\/     M anipulation  |                                                 |
\*---------------------------------------------------------------------------*/
FoamFile
{
    version     2.0;
    format      ascii;
    arch        "LSB;label=32;scalar=64";
    class       volScalarField;
    location    "3.1e-06";
    object      E;
}
// * * * * * * * * * * * * * * * * * * * * * * * * * * * * * * * * * * * * * //

dimensions      [0 0 0 0 0 0 0];

internalField   nonuniform List<scalar> 
84
(
99.4329
55.6195
60.7176
99.4422
55.6341
60.7307
99.4398
55.6324
60.7289
99.4398
55.6324
60.7289
99.4398
55.6324
60.7289
99.4398
55.6324
60.7289
99.4398
55.6324
60.7289
99.4398
55.6324
60.7289
99.4398
55.6324
60.7289
99.4398
55.6324
60.7289
99.4398
55.6324
60.7289
99.4399
55.6289
60.7262
82.3724
81.2066
81.4892
84.7731
83.5085
83.8006
84.5254
83.2708
83.5608
84.2783
83.0338
83.1038
81.1142
84.0316
82.7973
82.8634
83.1129
83.7866
82.5623
82.6245
82.8736
83.5472
82.3325
82.391
82.6395
83.3114
82.1061
82.1609
82.4082
83.0981
81.9005
81.9519
81.9622
81.1673
82.7875
81.6052
81.6517
81.6576
81.9057
82.5597
81.3862
81.4291
81.4322
81.7138
82.3238
81.1596
81.199
81.4446
)
;

boundaryField
{
    inlet
    {
        type            calculated;
        value           uniform 0;
    }
    outlet2
    {
        type            calculated;
        value           uniform 0;
    }
    outlet1
    {
        type            calculated;
        value           nonuniform List<scalar> 0();
    }
    wall
    {
        type            calculated;
        value           uniform 0;
    }
    symmetryBottom
    {
        type            symmetry;
    }
    symmetryZ0
    {
        type            symmetry;
    }
    symmetryZ05
    {
        type            symmetry;
    }
    procBoundary1to0
    {
        type            processor;
        value           uniform 0;
    }
}


// ************************************************************************* //
