/*--------------------------------*- C++ -*----------------------------------*\
| =========                 |                                                 |
| \\      /  F ield         | OpenFOAM: The Open Source CFD Toolbox           |
|  \\    /   O peration     | Version:  2412                                  |
|   \\  /    A nd           | Website:  www.openfoam.com                      |
|    \\/     M anipulation  |                                                 |
\*---------------------------------------------------------------------------*/
FoamFile
{
    version     2.0;
    format      ascii;
    arch        "LSB;label=32;scalar=64";
    class       volScalarField;
    location    "3.1e-06";
    object      rho_dof0;
}
// * * * * * * * * * * * * * * * * * * * * * * * * * * * * * * * * * * * * * //

dimensions      [0 0 0 0 0 0 0];

internalField   nonuniform List<scalar> 
84
(
2.81091e-05
1.58511e-05
1.72617e-05
2.81118e-05
1.58553e-05
1.72654e-05
2.81111e-05
1.58548e-05
1.72649e-05
2.81111e-05
1.58548e-05
1.72649e-05
2.81111e-05
1.58548e-05
1.72649e-05
2.81111e-05
1.58548e-05
1.72649e-05
2.81111e-05
1.58548e-05
1.72649e-05
2.81111e-05
1.58548e-05
1.72649e-05
2.81111e-05
1.58548e-05
1.72649e-05
2.81111e-05
1.58548e-05
1.72649e-05
2.81111e-05
1.58548e-05
1.72649e-05
2.81111e-05
1.58538e-05
1.72642e-05
2.33407e-05
2.30177e-05
2.30966e-05
2.40058e-05
2.36558e-05
2.37373e-05
2.39365e-05
2.35893e-05
2.36701e-05
2.38674e-05
2.35229e-05
2.35422e-05
2.29854e-05
2.37984e-05
2.34567e-05
2.34749e-05
2.35448e-05
2.37294e-05
2.33905e-05
2.34077e-05
2.34774e-05
2.36606e-05
2.33245e-05
2.33406e-05
2.34101e-05
2.35924e-05
2.3259e-05
2.3274e-05
2.33432e-05
2.35225e-05
2.31921e-05
2.32059e-05
2.32086e-05
2.30014e-05
2.34576e-05
2.31297e-05
2.31426e-05
2.31444e-05
2.32139e-05
2.33886e-05
2.30635e-05
2.30753e-05
2.30762e-05
2.3155e-05
2.33213e-05
2.29989e-05
2.30096e-05
2.30784e-05
)
;

boundaryField
{
    inlet
    {
        type            calculated;
        value           uniform 2.81085e-05;
    }
    outlet2
    {
        type            calculated;
        value           uniform 2.81085e-05;
    }
    outlet1
    {
        type            calculated;
        value           nonuniform List<scalar> 0();
    }
    wall
    {
        type            calculated;
        value           uniform 2.81085e-05;
    }
    symmetryBottom
    {
        type            symmetry;
    }
    symmetryZ0
    {
        type            symmetry;
    }
    symmetryZ05
    {
        type            symmetry;
    }
    procBoundary1to0
    {
        type            processor;
        value           uniform 2.81085e-05;
    }
}


// ************************************************************************* //
