/*--------------------------------*- C++ -*----------------------------------*\
| =========                 |                                                 |
| \\      /  F ield         | OpenFOAM: The Open Source CFD Toolbox           |
|  \\    /   O peration     | Version:  2412                                  |
|   \\  /    A nd           | Website:  www.openfoam.com                      |
|    \\/     M anipulation  |                                                 |
\*---------------------------------------------------------------------------*/
FoamFile
{
    version     2.0;
    format      ascii;
    arch        "LSB;label=32;scalar=64";
    class       volScalarField;
    location    "3.1e-06";
    object      T;
}
// * * * * * * * * * * * * * * * * * * * * * * * * * * * * * * * * * * * * * //

dimensions      [0 0 0 0 0 0 0];

internalField   nonuniform List<scalar> 
84
(
200.003
199.89
200.025
199.991
199.865
200.003
199.988
199.862
200
199.988
199.862
200
199.988
199.862
200
199.988
199.862
200
199.988
199.862
200
199.988
199.862
200
199.988
199.862
200
199.988
199.862
200
199.988
199.862
200
199.989
199.854
199.994
201.902
201.843
201.845
200.009
199.998
199.999
200.009
199.998
199.999
200.009
199.998
199.999
200.007
200.01
199.999
200
200
200.346
200.325
200.33
200.33
201.705
201.649
201.676
201.674
202.983
202.894
202.941
202.938
208.071
207.835
207.965
208.085
199.62
196.821
196.887
196.838
196.792
196.731
199.25
199.258
199.248
199.237
199.266
199.691
199.688
199.685
199.685
)
;

boundaryField
{
    inlet
    {
        type            calculated;
        value           uniform 0;
    }
    outlet2
    {
        type            calculated;
        value           uniform 0;
    }
    outlet1
    {
        type            calculated;
        value           nonuniform List<scalar> 0();
    }
    wall
    {
        type            calculated;
        value           uniform 0;
    }
    symmetryBottom
    {
        type            symmetry;
    }
    symmetryZ0
    {
        type            symmetry;
    }
    symmetryZ05
    {
        type            symmetry;
    }
    procBoundary1to0
    {
        type            processor;
        value           uniform 0;
    }
}


// ************************************************************************* //
