/*--------------------------------*- C++ -*----------------------------------*\
| =========                 |                                                 |
| \\      /  F ield         | OpenFOAM: The Open Source CFD Toolbox           |
|  \\    /   O peration     | Version:  2412                                  |
|   \\  /    A nd           | Website:  www.openfoam.com                      |
|    \\/     M anipulation  |                                                 |
\*---------------------------------------------------------------------------*/
FoamFile
{
    version     2.0;
    format      ascii;
    arch        "LSB;label=32;scalar=64";
    class       volScalarField;
    location    "4.5e-06";
    object      E;
}
// * * * * * * * * * * * * * * * * * * * * * * * * * * * * * * * * * * * * * //

dimensions      [0 0 0 0 0 0 0];

internalField   nonuniform List<scalar> 
84
(
99.4352
39.1542
49.2362
99.4536
39.175
49.2549
99.4489
39.1724
49.2519
99.4489
39.1724
49.2519
99.4489
39.1724
49.2519
99.4489
39.1724
49.2519
99.4489
39.1724
49.2519
99.4489
39.1724
49.2519
99.4489
39.1724
49.2519
99.4489
39.1724
49.2519
99.4489
39.1723
49.2519
99.4491
39.1676
49.2489
76.2992
74.0767
74.5197
79.5779
77.1255
77.5926
79.2364
76.8077
77.2698
78.896
76.4912
76.6517
73.942
78.5567
76.1756
76.33
76.6678
78.2193
75.8618
76.0101
76.3469
77.8897
75.5549
75.6974
76.0332
77.5667
75.2541
75.3909
75.7242
77.2719
74.9775
75.1092
75.12
74.0487
76.8531
74.5932
74.7171
74.7222
75.0575
76.5389
74.3
74.4184
74.4199
74.8242
76.2187
74.0016
74.1145
74.4446
)
;

boundaryField
{
    inlet
    {
        type            calculated;
        value           uniform 0;
    }
    outlet2
    {
        type            calculated;
        value           uniform 0;
    }
    outlet1
    {
        type            calculated;
        value           nonuniform List<scalar> 0();
    }
    wall
    {
        type            calculated;
        value           uniform 0;
    }
    symmetryBottom
    {
        type            symmetry;
    }
    symmetryZ0
    {
        type            symmetry;
    }
    symmetryZ05
    {
        type            symmetry;
    }
    procBoundary1to0
    {
        type            processor;
        value           uniform 0;
    }
}


// ************************************************************************* //
