/*--------------------------------*- C++ -*----------------------------------*\
| =========                 |                                                 |
| \\      /  F ield         | OpenFOAM: The Open Source CFD Toolbox           |
|  \\    /   O peration     | Version:  2412                                  |
|   \\  /    A nd           | Website:  www.openfoam.com                      |
|    \\/     M anipulation  |                                                 |
\*---------------------------------------------------------------------------*/
FoamFile
{
    version     2.0;
    format      ascii;
    arch        "LSB;label=32;scalar=64";
    class       volScalarField;
    location    "4.5e-06";
    object      rho;
}
// * * * * * * * * * * * * * * * * * * * * * * * * * * * * * * * * * * * * * //

dimensions      [0 0 0 0 0 0 0];

internalField   nonuniform List<scalar> 
84
(
2.81098e-05
1.12346e-05
1.40265e-05
2.8115e-05
1.12406e-05
1.40318e-05
2.81137e-05
1.12398e-05
1.4031e-05
2.81137e-05
1.12398e-05
1.4031e-05
2.81137e-05
1.12398e-05
1.4031e-05
2.81137e-05
1.12398e-05
1.4031e-05
2.81137e-05
1.12398e-05
1.4031e-05
2.81137e-05
1.12398e-05
1.4031e-05
2.81137e-05
1.12398e-05
1.4031e-05
2.81137e-05
1.12398e-05
1.4031e-05
2.81137e-05
1.12398e-05
1.4031e-05
2.81137e-05
1.12385e-05
1.40301e-05
2.16392e-05
2.10226e-05
2.1146e-05
2.25481e-05
2.18685e-05
2.19985e-05
2.24525e-05
2.17794e-05
2.1908e-05
2.23573e-05
2.16907e-05
2.17349e-05
2.09761e-05
2.22622e-05
2.16023e-05
2.16448e-05
2.17394e-05
2.21673e-05
2.15139e-05
2.15547e-05
2.1649e-05
2.20725e-05
2.14257e-05
2.14648e-05
2.15589e-05
2.1979e-05
2.13387e-05
2.13762e-05
2.14695e-05
2.18821e-05
2.12486e-05
2.12843e-05
2.12871e-05
2.10082e-05
2.17953e-05
2.11676e-05
2.12018e-05
2.12034e-05
2.12976e-05
2.17001e-05
2.1079e-05
2.11116e-05
2.11121e-05
2.12253e-05
2.16088e-05
2.09939e-05
2.10248e-05
2.11173e-05
)
;

boundaryField
{
    inlet
    {
        type            calculated;
        value           uniform 0;
    }
    outlet2
    {
        type            calculated;
        value           uniform 0;
    }
    outlet1
    {
        type            calculated;
        value           nonuniform List<scalar> 0();
    }
    wall
    {
        type            calculated;
        value           uniform 0;
    }
    symmetryBottom
    {
        type            symmetry;
    }
    symmetryZ0
    {
        type            symmetry;
    }
    symmetryZ05
    {
        type            symmetry;
    }
    procBoundary1to0
    {
        type            processor;
        value           uniform 0;
    }
}


// ************************************************************************* //
