/*--------------------------------*- C++ -*----------------------------------*\
| =========                 |                                                 |
| \\      /  F ield         | OpenFOAM: The Open Source CFD Toolbox           |
|  \\    /   O peration     | Version:  2412                                  |
|   \\  /    A nd           | Website:  www.openfoam.com                      |
|    \\/     M anipulation  |                                                 |
\*---------------------------------------------------------------------------*/
FoamFile
{
    version     2.0;
    format      ascii;
    arch        "LSB;label=32;scalar=64";
    class       volVectorField;
    location    "3e-07";
    object      rhoU_dof0;
}
// * * * * * * * * * * * * * * * * * * * * * * * * * * * * * * * * * * * * * //

dimensions      [0 0 0 0 0 0 0];

internalField   nonuniform List<vector> 
84
(
(0.0741049 -4.44318e-10 0)
(0.0705957 -2.24015e-08 0)
(0.0706238 -2.22258e-08 -1.09288e-20)
(0.0741049 -8.35447e-06 0)
(0.0705962 -8.15468e-06 0)
(0.0706244 -8.15558e-06 -9.36753e-21)
(0.0741049 -8.35226e-06 0)
(0.0705962 -8.15338e-06 0)
(0.0706244 -8.15427e-06 1.56126e-20)
(0.0741049 -8.35226e-06 0)
(0.0705962 -8.15338e-06 0)
(0.0706244 -8.15427e-06 -2.34189e-20)
(0.0741049 -8.35226e-06 0)
(0.0705962 -8.15338e-06 0)
(0.0706244 -8.15427e-06 -3.74702e-20)
(0.0741049 -8.35226e-06 0)
(0.0705962 -8.15338e-06 0)
(0.0706244 -8.15427e-06 2.02963e-20)
(0.0741049 -8.35226e-06 0)
(0.0705962 -8.15338e-06 0)
(0.0706244 -8.15427e-06 -2.65414e-20)
(0.0741049 -8.35226e-06 0)
(0.0705962 -8.15338e-06 0)
(0.0706244 -8.15427e-06 -3.27864e-20)
(0.0741049 -8.35226e-06 0)
(0.0705962 -8.15338e-06 0)
(0.0706244 -8.15427e-06 1.249e-20)
(0.0741049 -8.35226e-06 0)
(0.0705962 -8.15338e-06 0)
(0.0706244 -8.15427e-06 -2.65414e-20)
(0.0741049 -8.35226e-06 0)
(0.0705962 -8.15338e-06 0)
(0.0706244 -8.15427e-06 -7.02566e-20)
(0.0741049 -8.35315e-06 0)
(0.070596 -8.13228e-06 0)
(0.0706241 -8.13335e-06 0)
(0.0726825 8.50429e-06 3.05596e-23)
(0.0726756 8.5953e-06 7.81939e-21)
(0.0726956 8.59678e-06 8.59624e-22)
(0.0728778 -8.45961e-06 3.0569e-23)
(0.072873 -8.57808e-06 9.13319e-21)
(0.072893 -8.57899e-06 -2.36361e-24)
(0.072858 -8.4586e-06 -4.58529e-23)
(0.072853 -8.57704e-06 -2.61194e-21)
(0.072873 -8.57785e-06 -1.83169e-20)
(0.0728382 -8.45759e-06 7.55007e-23)
(0.072833 -8.576e-06 -1.42869e-22)
(0.0728353 -8.69806e-06 4.50116e-25)
(0.0726728 7.25743e-09 1.45863e-20)
(0.0728184 -8.45632e-06 -7.59388e-21)
(0.072813 -8.5747e-06 -1.18762e-22)
(0.072815 -8.69673e-06 -1.44371e-22)
(0.0728353 -8.69767e-06 1.19428e-20)
(0.0727986 -8.01067e-06 -6.11407e-23)
(0.072793 -8.12428e-06 -1.04244e-20)
(0.0727947 -8.2399e-06 -2.31208e-22)
(0.072815 -8.24082e-06 7.9609e-21)
(0.0727787 -6.45544e-06 2.13578e-23)
(0.0727729 -6.55231e-06 -4.55441e-25)
(0.0727743 -6.64556e-06 -7.55474e-23)
(0.0727946 -6.64636e-06 -7.25806e-23)
(0.0727589 -5.43242e-06 1.57227e-22)
(0.0727529 -5.51829e-06 -1.03649e-20)
(0.072754 -5.59682e-06 8.03556e-21)
(0.0727743 -5.59749e-06 5.25799e-23)
(0.0727391 -4.94624e-06 -3.37679e-23)
(0.0727329 -5.02687e-06 -1.42592e-20)
(0.0727338 -5.09842e-06 -1.31602e-20)
(0.0727346 -5.17204e-06 1.48212e-20)
(0.072673 9.90832e-09 9.81323e-20)
(0.0727195 -4.99143e-06 1.26817e-22)
(0.0727131 -5.0724e-06 -1.43246e-20)
(0.0727136 -5.14446e-06 7.98497e-21)
(0.0727142 -5.21861e-06 2.40822e-20)
(0.0727348 -5.22031e-06 1.21478e-20)
(0.0726998 -5.59138e-06 2.58215e-22)
(0.0726931 -5.6788e-06 -1.0548e-25)
(0.0726934 -5.75951e-06 1.80546e-23)
(0.0726937 -5.84262e-06 5.96506e-24)
(0.0727144 -5.84837e-06 -1.34552e-20)
(0.0726801 -6.72622e-06 1.04532e-23)
(0.0726732 -6.82573e-06 1.4336e-20)
(0.0726732 -6.92273e-06 -4.04259e-23)
(0.0726935 -6.92375e-06 -2.38654e-20)
)
;

boundaryField
{
    inlet
    {
        type            calculated;
        value           uniform (0.0741049 0 0);
    }
    outlet2
    {
        type            calculated;
        value           uniform (0.0741049 0 0);
    }
    outlet1
    {
        type            calculated;
        value           nonuniform List<vector> 0();
    }
    wall
    {
        type            calculated;
        value           uniform (0.0741049 0 0);
    }
    symmetryBottom
    {
        type            symmetry;
    }
    symmetryZ0
    {
        type            symmetry;
    }
    symmetryZ05
    {
        type            symmetry;
    }
    procBoundary1to0
    {
        type            processor;
        value           uniform (0.0741049 0 0);
    }
}


// ************************************************************************* //
