/*--------------------------------*- C++ -*----------------------------------*\
| =========                 |                                                 |
| \\      /  F ield         | OpenFOAM: The Open Source CFD Toolbox           |
|  \\    /   O peration     | Version:  2412                                  |
|   \\  /    A nd           | Website:  www.openfoam.com                      |
|    \\/     M anipulation  |                                                 |
\*---------------------------------------------------------------------------*/
FoamFile
{
    version     2.0;
    format      ascii;
    arch        "LSB;label=32;scalar=64";
    class       volVectorField;
    location    "3e-07";
    object      U;
}
// * * * * * * * * * * * * * * * * * * * * * * * * * * * * * * * * * * * * * //

dimensions      [0 0 0 0 0 0 0];

internalField   nonuniform List<vector> 
84
(
(2636.39 -1.58072e-05 0)
(2635.61 -0.000836337 0)
(2635.63 -0.000829451 -4.07853e-16)
(2636.39 -0.297222 0)
(2635.61 -0.304444 0)
(2635.63 -0.304358 -3.49586e-16)
(2636.39 -0.297144 0)
(2635.61 -0.304395 0)
(2635.63 -0.304309 5.82644e-16)
(2636.39 -0.297144 0)
(2635.61 -0.304395 0)
(2635.63 -0.304309 -8.73968e-16)
(2636.39 -0.297144 0)
(2635.61 -0.304395 0)
(2635.63 -0.304309 -1.39835e-15)
(2636.39 -0.297144 0)
(2635.61 -0.304395 0)
(2635.63 -0.304309 7.57437e-16)
(2636.39 -0.297144 0)
(2635.61 -0.304395 0)
(2635.63 -0.304309 -9.90497e-16)
(2636.39 -0.297144 0)
(2635.61 -0.304395 0)
(2635.63 -0.304309 -1.22355e-15)
(2636.39 -0.297144 0)
(2635.61 -0.304395 0)
(2635.63 -0.304309 4.66115e-16)
(2636.39 -0.297144 0)
(2635.61 -0.304395 0)
(2635.63 -0.304309 -9.90497e-16)
(2636.39 -0.297144 0)
(2635.61 -0.304395 0)
(2635.63 -0.304309 -2.6219e-15)
(2636.39 -0.297175 0)
(2635.61 -0.303609 0)
(2635.63 -0.303529 0)
(2636.03 0.308431 1.10833e-18)
(2636.02 0.311761 2.83618e-16)
(2636.03 0.311729 3.1171e-17)
(2636.13 -0.306 1.10574e-18)
(2636.12 -0.310305 3.30386e-16)
(2636.13 -0.310253 -8.54783e-20)
(2636.12 -0.306046 -1.65903e-18)
(2636.12 -0.310352 -9.45108e-17)
(2636.12 -0.310297 -6.62598e-16)
(2636.12 -0.306092 2.73248e-18)
(2636.12 -0.310399 -5.17098e-18)
(2636.12 -0.314807 1.6291e-20)
(2636.08 0.000263251 5.29093e-16)
(2636.11 -0.306129 -2.74908e-16)
(2636.11 -0.310437 -4.29963e-18)
(2636.11 -0.314846 -5.22664e-18)
(2636.12 -0.314793 4.32242e-16)
(2636.11 -0.290074 -2.21397e-18)
(2636.1 -0.29421 -3.77505e-16)
(2636.11 -0.298391 -8.37272e-18)
(2636.11 -0.298341 2.88207e-16)
(2636.1 -0.233821 7.73596e-19)
(2636.1 -0.237348 -1.64977e-20)
(2636.1 -0.240721 -2.73655e-18)
(2636.1 -0.240684 -2.62835e-18)
(2636.09 -0.196819 5.69643e-18)
(2636.09 -0.199947 -3.75556e-16)
(2636.09 -0.202789 2.91152e-16)
(2636.09 -0.202757 1.9046e-18)
(2636.09 -0.179253 -1.22376e-18)
(2636.09 -0.182191 -5.16803e-16)
(2636.09 -0.184782 -4.76965e-16)
(2636.09 -0.187448 5.37156e-16)
(2636.08 0.000359406 3.55957e-15)
(2636.09 -0.18094 4.59713e-18)
(2636.08 -0.183891 -5.19311e-16)
(2636.08 -0.186502 2.89479e-16)
(2636.08 -0.189189 8.73044e-16)
(2636.09 -0.189197 4.40266e-16)
(2636.08 -0.202743 9.36283e-18)
(2636.08 -0.205931 -3.82504e-21)
(2636.08 -0.208857 6.54713e-19)
(2636.08 -0.21187 2.1631e-19)
(2636.09 -0.212019 -4.87787e-16)
(2636.08 -0.243958 3.79133e-19)
(2636.08 -0.24759 5.20009e-16)
(2636.08 -0.251109 -1.46637e-18)
(2636.08 -0.251076 -8.65431e-16)
)
;

boundaryField
{
    inlet
    {
        type            calculated;
        value           uniform (0 0 0);
    }
    outlet2
    {
        type            calculated;
        value           uniform (0 0 0);
    }
    outlet1
    {
        type            calculated;
        value           nonuniform List<vector> 0();
    }
    wall
    {
        type            calculated;
        value           uniform (0 0 0);
    }
    symmetryBottom
    {
        type            symmetry;
    }
    symmetryZ0
    {
        type            symmetry;
    }
    symmetryZ05
    {
        type            symmetry;
    }
    procBoundary1to0
    {
        type            processor;
        value           uniform (0 0 0);
    }
}


// ************************************************************************* //
