/*--------------------------------*- C++ -*----------------------------------*\
| =========                 |                                                 |
| \\      /  F ield         | OpenFOAM: The Open Source CFD Toolbox           |
|  \\    /   O peration     | Version:  2412                                  |
|   \\  /    A nd           | Website:  www.openfoam.com                      |
|    \\/     M anipulation  |                                                 |
\*---------------------------------------------------------------------------*/
FoamFile
{
    version     2.0;
    format      ascii;
    arch        "LSB;label=32;scalar=64";
    class       volScalarField;
    location    "5.3e-06";
    object      E;
}
// * * * * * * * * * * * * * * * * * * * * * * * * * * * * * * * * * * * * * //

dimensions      [0 0 0 0 0 0 0];

internalField   nonuniform List<scalar> 
84
(
97.5463
68.0279
70.5878
70.4452
70.4546
70.4578
70.4613
70.8831
102.398
71.4937
74.2281
74.1344
74.2013
74.2634
74.3279
74.7669
101.521
71.4801
73.8079
73.7492
73.8073
73.8631
73.9209
74.3582
101.146
70.8249
73.5119
73.4092
73.4651
73.5161
73.9517
100.945
70.4408
73.1277
73.0188
73.0684
73.1129
73.5467
100.437
70.0765
72.7447
72.6304
72.6737
72.7116
73.1437
99.9383
69.7218
72.3702
72.2508
72.2879
72.3195
72.7498
99.2567
69.5684
71.9837
71.8815
71.9114
71.937
72.3656
98.855
69.079
71.6844
71.556
71.5822
72.0091
98.4021
68.6238
71.2171
71.0822
71.1011
71.5257
97.8283
68.2882
70.8525
70.713
70.7257
71.1487
96.8826
68.0391
70.4771
70.3427
70.3491
70.3497
70.7713
)
;

boundaryField
{
    inlet
    {
        type            calculated;
        value           nonuniform List<scalar> 0();
    }
    outlet2
    {
        type            calculated;
        value           uniform 0;
    }
    outlet1
    {
        type            calculated;
        value           uniform 0;
    }
    wall
    {
        type            calculated;
        value           uniform 0;
    }
    symmetryBottom
    {
        type            symmetry;
    }
    symmetryZ0
    {
        type            symmetry;
    }
    symmetryZ05
    {
        type            symmetry;
    }
    procBoundary0to1
    {
        type            processor;
        value           uniform 0;
    }
}


// ************************************************************************* //
