/*--------------------------------*- C++ -*----------------------------------*\
| =========                 |                                                 |
| \\      /  F ield         | OpenFOAM: The Open Source CFD Toolbox           |
|  \\    /   O peration     | Version:  2412                                  |
|   \\  /    A nd           | Website:  www.openfoam.com                      |
|    \\/     M anipulation  |                                                 |
\*---------------------------------------------------------------------------*/
FoamFile
{
    version     2.0;
    format      ascii;
    arch        "LSB;label=32;scalar=64";
    class       volScalarField;
    location    "5.3e-06";
    object      rho_dof0;
}
// * * * * * * * * * * * * * * * * * * * * * * * * * * * * * * * * * * * * * //

dimensions      [0 0 0 0 0 0 0];

internalField   nonuniform List<scalar> 
84
(
2.76018e-05
1.93355e-05
2.00442e-05
2.00054e-05
2.00081e-05
2.00092e-05
2.00103e-05
2.01286e-05
2.89447e-05
2.02981e-05
2.10547e-05
2.10294e-05
2.10481e-05
2.10655e-05
2.10836e-05
2.12066e-05
2.87006e-05
2.02929e-05
2.09371e-05
2.09214e-05
2.09377e-05
2.09533e-05
2.09695e-05
2.1092e-05
2.85956e-05
2.01104e-05
2.08539e-05
2.08261e-05
2.08417e-05
2.0856e-05
2.0978e-05
2.85388e-05
2.00027e-05
2.07461e-05
2.07166e-05
2.07305e-05
2.0743e-05
2.08645e-05
2.83959e-05
1.99001e-05
2.06383e-05
2.06073e-05
2.06193e-05
2.063e-05
2.0751e-05
2.82526e-05
1.97981e-05
2.05306e-05
2.04982e-05
2.05085e-05
2.05173e-05
2.06378e-05
2.80579e-05
1.97515e-05
2.04191e-05
2.03913e-05
2.03995e-05
2.04066e-05
2.05266e-05
2.79262e-05
1.95994e-05
2.0319e-05
2.02837e-05
2.02905e-05
2.041e-05
2.78439e-05
1.9503e-05
2.02214e-05
2.01847e-05
2.01901e-05
2.03092e-05
2.7672e-05
1.94015e-05
2.01113e-05
2.00732e-05
2.00768e-05
2.01953e-05
2.74033e-05
1.93299e-05
2.00041e-05
1.99674e-05
1.99691e-05
1.99693e-05
2.00875e-05
)
;

boundaryField
{
    inlet
    {
        type            calculated;
        value           nonuniform List<scalar> 0();
    }
    outlet2
    {
        type            calculated;
        value           uniform 2.81085e-05;
    }
    outlet1
    {
        type            calculated;
        value           uniform 2.81085e-05;
    }
    wall
    {
        type            calculated;
        value           uniform 2.81085e-05;
    }
    symmetryBottom
    {
        type            symmetry;
    }
    symmetryZ0
    {
        type            symmetry;
    }
    symmetryZ05
    {
        type            symmetry;
    }
    procBoundary0to1
    {
        type            processor;
        value           uniform 2.81085e-05;
    }
}


// ************************************************************************* //
