/*--------------------------------*- C++ -*----------------------------------*\
| =========                 |                                                 |
| \\      /  F ield         | OpenFOAM: The Open Source CFD Toolbox           |
|  \\    /   O peration     | Version:  2412                                  |
|   \\  /    A nd           | Website:  www.openfoam.com                      |
|    \\/     M anipulation  |                                                 |
\*---------------------------------------------------------------------------*/
FoamFile
{
    version     2.0;
    format      ascii;
    arch        "LSB;label=32;scalar=64";
    class       volScalarField;
    location    "5.3e-06";
    object      T;
}
// * * * * * * * * * * * * * * * * * * * * * * * * * * * * * * * * * * * * * //

dimensions      [0 0 0 0 0 0 0];

internalField   nonuniform List<scalar> 
84
(
203.219
203.27
203.357
203.403
203.456
203.51
203.566
203.561
199.982
199.963
200.003
199.998
199.998
199.998
199.998
199.998
199.965
199.964
200.002
199.998
199.998
199.998
199.998
199.998
199.987
199.961
200.003
199.997
199.998
199.998
199.998
199.987
199.965
200.007
200.001
200.002
200.002
200.002
200.474
200.484
200.526
200.526
200.531
200.536
200.536
202.87
202.959
203.032
203.073
203.121
203.169
203.164
205.001
205.359
205.385
205.472
205.559
205.649
205.639
213.619
215.38
215.511
215.784
216.064
216.031
194.258
194.113
194.07
193.967
193.868
193.878
198.539
198.578
198.586
198.558
198.534
198.537
199.869
199.356
199.419
199.404
199.394
199.384
199.386
)
;

boundaryField
{
    inlet
    {
        type            calculated;
        value           nonuniform List<scalar> 0();
    }
    outlet2
    {
        type            calculated;
        value           uniform 0;
    }
    outlet1
    {
        type            calculated;
        value           uniform 0;
    }
    wall
    {
        type            calculated;
        value           uniform 0;
    }
    symmetryBottom
    {
        type            symmetry;
    }
    symmetryZ0
    {
        type            symmetry;
    }
    symmetryZ05
    {
        type            symmetry;
    }
    procBoundary0to1
    {
        type            processor;
        value           uniform 0;
    }
}


// ************************************************************************* //
