/*--------------------------------*- C++ -*----------------------------------*\
| =========                 |                                                 |
| \\      /  F ield         | OpenFOAM: The Open Source CFD Toolbox           |
|  \\    /   O peration     | Version:  2412                                  |
|   \\  /    A nd           | Website:  www.openfoam.com                      |
|    \\/     M anipulation  |                                                 |
\*---------------------------------------------------------------------------*/
FoamFile
{
    version     2.0;
    format      ascii;
    arch        "LSB;label=32;scalar=64";
    class       volVectorField;
    location    "5.3e-06";
    object      U;
}
// * * * * * * * * * * * * * * * * * * * * * * * * * * * * * * * * * * * * * //

dimensions      [0 0 0 0 0 0 0];

internalField   nonuniform List<vector> 
84
(
(2634.74 5.45788 5.47082e-15)
(2628.74 5.55997 -7.71185e-15)
(2629.99 5.6354 -1.3665e-14)
(2629.88 5.71774 8.2467e-15)
(2629.87 5.80217 -9.45219e-16)
(2629.85 5.88914 1.00404e-15)
(2629.83 5.97876 1.30517e-14)
(2629.94 5.97055 1.91214e-15)
(2636.51 -5.57254 5.36161e-15)
(2630.61 -5.74973 -7.33704e-15)
(2631.87 -5.80914 -1.65317e-14)
(2631.78 -5.89882 1.78231e-15)
(2631.8 -5.9888 -3.12803e-14)
(2631.81 -6.08171 6.72995e-15)
(2631.83 -6.17754 2.49206e-14)
(2631.93 -6.16781 5.02301e-15)
(2636.33 -5.1091 -2.18703e-14)
(2630.7 -6.33311 5.79053e-15)
(2631.76 -5.75034 9.67252e-15)
(2631.7 -5.90358 -9.70079e-16)
(2631.72 -5.98982 -3.94311e-16)
(2631.73 -6.08293 1.23189e-14)
(2631.74 -6.17879 -1.08047e-14)
(2631.84 -6.16905 -1.18086e-14)
(2636.28 -5.29846 -2.1339e-14)
(2630.47 -5.85775 1.42293e-14)
(2631.71 -5.89866 -1.34561e-15)
(2631.63 -5.99128 -2.82152e-14)
(2631.64 -6.08416 2.76424e-14)
(2631.65 -6.18007 4.79516e-15)
(2631.75 -6.17033 -1.08595e-14)
(2636.28 -5.66529 -1.34147e-14)
(2630.37 -5.83107 -5.1494e-15)
(2631.63 -5.9026 4.82935e-16)
(2631.54 -5.9941 1.48002e-16)
(2631.56 -6.08711 -1.03753e-14)
(2631.57 -6.18311 7.98931e-15)
(2631.67 -6.17336 1.75594e-14)
(2636.18 -5.46216 -8.10658e-15)
(2630.26 -5.61345 1.55351e-14)
(2631.52 -5.68567 -1.42705e-15)
(2631.43 -5.77533 1.81075e-14)
(2631.44 -5.86667 -1.65095e-14)
(2631.45 -5.961 1.39955e-14)
(2631.55 -5.95163 -3.04956e-14)
(2636.02 -4.39849 -2.71851e-18)
(2630.05 -4.52587 1.48138e-14)
(2631.32 -4.57943 -1.39229e-15)
(2631.22 -4.65204 2.66322e-17)
(2631.23 -4.72548 1.50401e-14)
(2631.24 -4.80136 2.02348e-15)
(2631.34 -4.79387 1.48125e-14)
(2635.87 -3.33343 1.76797e-16)
(2629.98 -4.33534 1.82047e-16)
(2631.16 -3.84968 -7.39465e-17)
(2631.08 -3.96503 -1.84764e-16)
(2631.08 -4.02517 -3.87992e-17)
(2631.09 -4.09073 8.25198e-17)
(2631.19 -4.0843 -1.24912e-14)
(2635.72 -3.17613 2.90551e-14)
(2629.7 -3.50085 -3.51406e-15)
(2630.97 -3.53002 -3.17284e-14)
(2630.87 -3.58644 -1.04443e-14)
(2630.88 -3.64339 1.73015e-14)
(2630.98 -3.63784 -1.68121e-15)
(2635.8 -3.33438 -1.04628e-14)
(2629.95 -3.41487 1.26549e-15)
(2631.19 -3.45951 -1.47296e-14)
(2631.1 -3.51227 1.61975e-14)
(2631.11 -3.56614 2.71835e-14)
(2631.21 -3.56093 -2.68536e-15)
(2635.76 -3.55491 -1.47685e-14)
(2629.85 -3.91498 1.73676e-15)
(2631.1 -3.92797 -6.02431e-17)
(2631 -3.99118 2.8602e-14)
(2631.01 -4.05336 2.95951e-14)
(2631.11 -4.04733 1.22084e-15)
(2635.66 -0.471834 -9.72952e-16)
(2629.81 -5.22986 8.16699e-17)
(2631.04 -4.59764 -3.30776e-18)
(2630.95 -4.71537 1.75275e-14)
(2630.95 -4.7853 -1.68512e-15)
(2630.95 -4.85996 9.96791e-17)
(2631.05 -4.85288 -1.48414e-14)
)
;

boundaryField
{
    inlet
    {
        type            calculated;
        value           nonuniform List<vector> 0();
    }
    outlet2
    {
        type            calculated;
        value           uniform (0 0 0);
    }
    outlet1
    {
        type            calculated;
        value           uniform (0 0 0);
    }
    wall
    {
        type            calculated;
        value           uniform (0 0 0);
    }
    symmetryBottom
    {
        type            symmetry;
    }
    symmetryZ0
    {
        type            symmetry;
    }
    symmetryZ05
    {
        type            symmetry;
    }
    procBoundary0to1
    {
        type            processor;
        value           uniform (0 0 0);
    }
}


// ************************************************************************* //
