/*--------------------------------*- C++ -*----------------------------------*\
| =========                 |                                                 |
| \\      /  F ield         | OpenFOAM: The Open Source CFD Toolbox           |
|  \\    /   O peration     | Version:  2412                                  |
|   \\  /    A nd           | Website:  www.openfoam.com                      |
|    \\/     M anipulation  |                                                 |
\*---------------------------------------------------------------------------*/
FoamFile
{
    version     2.0;
    format      ascii;
    arch        "LSB;label=32;scalar=64";
    class       volScalarField;
    location    "4.2e-06";
    object      E_dof0;
}
// * * * * * * * * * * * * * * * * * * * * * * * * * * * * * * * * * * * * * //

dimensions      [0 0 0 0 0 0 0];

internalField   nonuniform List<scalar> 
84
(
98.2877
74.066
75.7229
75.6511
75.6558
75.6581
75.6606
76.013
102.157
77.0495
78.8134
78.786
78.8393
78.8916
78.9456
79.3093
101.515
76.9592
78.4727
78.4602
78.5073
78.5543
78.6028
78.9653
101.208
76.4733
78.2098
78.1742
78.2184
78.2614
78.6228
101.006
76.1507
77.8854
77.8446
77.8835
77.921
78.2813
100.603
75.8392
77.5624
77.5169
77.5505
77.5825
77.9416
100.208
75.5353
77.2467
77.1965
77.2249
77.2517
77.6097
99.694
75.359
76.9268
76.8829
76.9059
76.9276
77.2844
99.3748
74.9824
76.6688
76.6104
76.6297
76.9855
98.9826
74.5886
76.2664
76.2021
76.2151
76.5694
98.5413
74.2986
75.9599
75.8912
75.8991
76.2524
97.7806
74.0624
75.643
75.5748
75.5775
75.578
75.9303
)
;

boundaryField
{
    inlet
    {
        type            calculated;
        value           nonuniform List<scalar> 0();
    }
    outlet2
    {
        type            calculated;
        value           uniform 99.4306;
    }
    outlet1
    {
        type            calculated;
        value           uniform 99.4306;
    }
    wall
    {
        type            calculated;
        value           uniform 99.4306;
    }
    symmetryBottom
    {
        type            symmetry;
    }
    symmetryZ0
    {
        type            symmetry;
    }
    symmetryZ05
    {
        type            symmetry;
    }
    procBoundary0to1
    {
        type            processor;
        value           uniform 99.4306;
    }
}


// ************************************************************************* //
