/*--------------------------------*- C++ -*----------------------------------*\
| =========                 |                                                 |
| \\      /  F ield         | OpenFOAM: The Open Source CFD Toolbox           |
|  \\    /   O peration     | Version:  2412                                  |
|   \\  /    A nd           | Website:  www.openfoam.com                      |
|    \\/     M anipulation  |                                                 |
\*---------------------------------------------------------------------------*/
FoamFile
{
    version     2.0;
    format      ascii;
    arch        "LSB;label=32;scalar=64";
    class       volScalarField;
    location    "4.2e-06";
    object      rho;
}
// * * * * * * * * * * * * * * * * * * * * * * * * * * * * * * * * * * * * * //

dimensions      [0 0 0 0 0 0 0];

internalField   nonuniform List<scalar> 
84
(
2.78041e-05
2.10244e-05
2.14829e-05
2.14634e-05
2.14649e-05
2.14656e-05
2.14665e-05
2.15652e-05
2.8875e-05
2.18523e-05
2.23401e-05
2.2333e-05
2.23479e-05
2.23625e-05
2.23777e-05
2.24795e-05
2.86964e-05
2.18261e-05
2.22448e-05
2.22417e-05
2.22549e-05
2.2268e-05
2.22816e-05
2.23831e-05
2.86103e-05
2.16907e-05
2.21711e-05
2.21616e-05
2.2174e-05
2.2186e-05
2.22872e-05
2.85532e-05
2.16003e-05
2.20802e-05
2.20692e-05
2.20801e-05
2.20906e-05
2.21915e-05
2.844e-05
2.15126e-05
2.19892e-05
2.1977e-05
2.19863e-05
2.19953e-05
2.20959e-05
2.83266e-05
2.14253e-05
2.18985e-05
2.18849e-05
2.18928e-05
2.19002e-05
2.20005e-05
2.81795e-05
2.13728e-05
2.18061e-05
2.17942e-05
2.18005e-05
2.18065e-05
2.19064e-05
2.80749e-05
2.12546e-05
2.17204e-05
2.17042e-05
2.17092e-05
2.18088e-05
2.80005e-05
2.11714e-05
2.16359e-05
2.16185e-05
2.16223e-05
2.17216e-05
2.78681e-05
2.10836e-05
2.15433e-05
2.15246e-05
2.15268e-05
2.16257e-05
2.7652e-05
2.1016e-05
2.14529e-05
2.14343e-05
2.1435e-05
2.14352e-05
2.15338e-05
)
;

boundaryField
{
    inlet
    {
        type            calculated;
        value           nonuniform List<scalar> 0();
    }
    outlet2
    {
        type            calculated;
        value           uniform 0;
    }
    outlet1
    {
        type            calculated;
        value           uniform 0;
    }
    wall
    {
        type            calculated;
        value           uniform 0;
    }
    symmetryBottom
    {
        type            symmetry;
    }
    symmetryZ0
    {
        type            symmetry;
    }
    symmetryZ05
    {
        type            symmetry;
    }
    procBoundary0to1
    {
        type            processor;
        value           uniform 0;
    }
}


// ************************************************************************* //
