/*--------------------------------*- C++ -*----------------------------------*\
| =========                 |                                                 |
| \\      /  F ield         | OpenFOAM: The Open Source CFD Toolbox           |
|  \\    /   O peration     | Version:  2412                                  |
|   \\  /    A nd           | Website:  www.openfoam.com                      |
|    \\/     M anipulation  |                                                 |
\*---------------------------------------------------------------------------*/
FoamFile
{
    version     2.0;
    format      ascii;
    arch        "LSB;label=32;scalar=64";
    class       volVectorField;
    location    "4.2e-06";
    object      rhoU;
}
// * * * * * * * * * * * * * * * * * * * * * * * * * * * * * * * * * * * * * //

dimensions      [0 0 0 0 0 0 0];

internalField   nonuniform List<vector> 
84
(
(0.0732689 0.000121167 1.21811e-19)
(0.0553059 9.33272e-05 -1.21669e-19)
(0.0565278 9.66854e-05 -2.46701e-19)
(0.0564752 9.80188e-05 1.33831e-19)
(0.0564788 9.94852e-05 -1.14544e-20)
(0.0564806 0.000100993 1.60334e-20)
(0.0564825 0.000102547 2.34358e-19)
(0.0567439 0.000102906 4.13169e-20)
(0.0761313 -0.000127613 1.25462e-19)
(0.057516 -9.94288e-05 -1.21132e-19)
(0.0588166 -0.00010286 -3.02874e-19)
(0.058797 -0.000104394 2.59827e-20)
(0.0588364 -0.000106059 -5.64652e-19)
(0.0588752 -0.000107775 1.05215e-19)
(0.0589153 -0.000109547 4.52923e-19)
(0.0591851 -0.000109907 9.2045e-20)
(0.0756568 -0.000118147 -5.33486e-19)
(0.0574478 -0.000106805 9.29511e-20)
(0.058564 -0.000101816 1.69013e-19)
(0.0585552 -0.000104017 -1.35828e-20)
(0.0585901 -0.000105637 -5.96483e-21)
(0.058625 -0.000107341 2.28142e-19)
(0.058661 -0.000109099 -1.95665e-19)
(0.0589299 -0.000109458 -2.23642e-19)
(0.0754286 -0.000121587 -5.19242e-19)
(0.0570882 -0.000100413 2.45381e-19)
(0.0583688 -0.000103655 -1.89055e-20)
(0.058343 -0.000105217 -5.03164e-19)
(0.0583758 -0.000106909 4.83558e-19)
(0.0584076 -0.000108653 9.27876e-20)
(0.0586757 -0.000109011 -1.95389e-19)
(0.075278 -0.000128228 -3.09607e-19)
(0.0568489 -9.97323e-05 -8.98905e-20)
(0.058128 -0.000103282 6.91829e-21)
(0.0580984 -0.000104822 2.11488e-21)
(0.0581272 -0.000106501 -1.78273e-19)
(0.0581551 -0.000108232 1.37158e-19)
(0.0584223 -0.000108589 3.18508e-19)
(0.0749773 -0.000122677 -1.89506e-19)
(0.056616 -9.52859e-05 2.69735e-19)
(0.0578866 -9.87124e-05 -1.97837e-20)
(0.0578535 -0.000100199 3.24707e-19)
(0.0578783 -0.000101821 -2.9234e-19)
(0.0579021 -0.000103493 2.51879e-19)
(0.0581685 -0.000103836 -5.416e-19)
(0.0746745 -9.8462e-05 -5.26726e-23)
(0.0563828 -7.65024e-05 2.62218e-19)
(0.0576444 -7.92065e-05 -1.93888e-20)
(0.0576076 -8.03964e-05 -6.212e-23)
(0.0576286 -8.1691e-05 2.71068e-19)
(0.0576482 -8.30258e-05 3.71654e-20)
(0.0579138 -8.33023e-05 2.69831e-19)
(0.0742836 -7.57599e-05 3.19413e-21)
(0.0562434 -7.07998e-05 2.24594e-21)
(0.0573988 -6.64848e-05 -1.11369e-21)
(0.0573665 -6.80317e-05 -2.52582e-21)
(0.0573833 -6.91072e-05 -5.15928e-22)
(0.057399 -7.02428e-05 1.02968e-21)
(0.0576637 -7.0477e-05 -2.36325e-19)
(0.0740048 -7.15111e-05 6.58708e-19)
(0.0559285 -5.87522e-05 -4.45358e-20)
(0.0571702 -6.07e-05 -5.56208e-19)
(0.0571266 -6.16127e-05 -2.04804e-19)
(0.0571399 -6.26045e-05 3.03396e-19)
(0.0574037 -6.28159e-05 -1.79392e-20)
(0.0738099 -7.44183e-05 -2.37448e-19)
(0.0557126 -5.7579e-05 1.59275e-20)
(0.0569508 -5.96503e-05 -2.60687e-19)
(0.056904 -6.05136e-05 2.81538e-19)
(0.056914 -6.14588e-05 4.77526e-19)
(0.057177 -6.16691e-05 -3.82814e-20)
(0.07346 -7.97228e-05 -3.28568e-19)
(0.0554802 -6.52627e-05 2.14627e-20)
(0.0567055 -6.72293e-05 -4.9072e-22)
(0.0566552 -6.82285e-05 4.92299e-19)
(0.0566612 -6.93025e-05 5.15793e-19)
(0.0569233 -6.95389e-05 2.47998e-20)
(0.0728884 -8.52895e-06 -1.83013e-20)
(0.0553014 -8.46266e-05 8.24958e-22)
(0.0564665 -7.86794e-05 -2.65429e-23)
(0.0564166 -8.02897e-05 3.0557e-19)
(0.0564186 -8.15088e-05 -2.28669e-20)
(0.056419 -8.27835e-05 1.04607e-21)
(0.0566804 -8.30689e-05 -2.66994e-19)
)
;

boundaryField
{
    inlet
    {
        type            calculated;
        value           nonuniform List<vector> 0();
    }
    outlet2
    {
        type            calculated;
        value           uniform (0 0 0);
    }
    outlet1
    {
        type            calculated;
        value           uniform (0 0 0);
    }
    wall
    {
        type            calculated;
        value           uniform (0 0 0);
    }
    symmetryBottom
    {
        type            symmetry;
    }
    symmetryZ0
    {
        type            symmetry;
    }
    symmetryZ05
    {
        type            symmetry;
    }
    procBoundary0to1
    {
        type            processor;
        value           uniform (0 0 0);
    }
}


// ************************************************************************* //
