/*--------------------------------*- C++ -*----------------------------------*\
| =========                 |                                                 |
| \\      /  F ield         | OpenFOAM: The Open Source CFD Toolbox           |
|  \\    /   O peration     | Version:  2412                                  |
|   \\  /    A nd           | Website:  www.openfoam.com                      |
|    \\/     M anipulation  |                                                 |
\*---------------------------------------------------------------------------*/
FoamFile
{
    version     2.0;
    format      ascii;
    arch        "LSB;label=32;scalar=64";
    class       volVectorField;
    location    "4.2e-06";
    object      U;
}
// * * * * * * * * * * * * * * * * * * * * * * * * * * * * * * * * * * * * * //

dimensions      [0 0 0 0 0 0 0];

internalField   nonuniform List<vector> 
84
(
(2635.18 4.35787 4.38103e-15)
(2630.56 4.439 -5.78704e-15)
(2631.29 4.50057 -1.14836e-14)
(2631.23 4.56678 6.23529e-15)
(2631.22 4.63479 -5.33633e-16)
(2631.21 4.70486 7.46935e-16)
(2631.19 4.77708 1.09174e-14)
(2631.27 4.77187 1.91591e-15)
(2636.58 -4.41951 4.345e-15)
(2632.04 -4.55005 -5.54322e-15)
(2632.78 -4.60426 -1.35574e-14)
(2632.74 -4.67445 1.16342e-15)
(2632.75 -4.74582 -2.52665e-14)
(2632.76 -4.81945 4.70496e-15)
(2632.77 -4.89539 2.02399e-14)
(2632.85 -4.88922 4.09462e-15)
(2636.46 -4.11713 -1.85907e-14)
(2632.07 -4.89347 4.25872e-15)
(2632.7 -4.57709 7.59784e-15)
(2632.68 -4.67667 -6.10692e-16)
(2632.69 -4.74671 -2.68023e-16)
(2632.69 -4.82041 1.02453e-14)
(2632.7 -4.89638 -8.78145e-15)
(2632.78 -4.8902 -9.99156e-15)
(2636.41 -4.24976 -1.81488e-14)
(2631.92 -4.62932 1.13127e-14)
(2632.66 -4.67526 -8.52709e-16)
(2632.62 -4.74773 -2.27043e-14)
(2632.63 -4.82138 2.18075e-14)
(2632.64 -4.89738 4.18226e-15)
(2632.71 -4.8912 -8.7669e-15)
(2636.41 -4.49085 -1.08432e-14)
(2631.85 -4.61716 -4.16153e-15)
(2632.59 -4.6776 3.13326e-16)
(2632.55 -4.74968 9.58294e-17)
(2632.56 -4.8234 -8.07394e-15)
(2632.57 -4.89947 6.20887e-15)
(2632.64 -4.89328 1.43527e-14)
(2636.33 -4.31352 -6.66334e-15)
(2631.76 -4.42931 1.25385e-14)
(2632.5 -4.48913 -8.99701e-16)
(2632.46 -4.55926 1.47749e-14)
(2632.47 -4.63108 -1.32964e-14)
(2632.47 -4.70523 1.14515e-14)
(2632.55 -4.69933 -2.45114e-14)
(2636.2 -3.47595 -1.85947e-18)
(2631.61 -3.57066 1.22387e-14)
(2632.35 -3.61699 -8.85396e-16)
(2632.3 -3.6736 -2.83849e-18)
(2632.31 -3.73141 1.23816e-14)
(2632.31 -3.79109 1.69703e-15)
(2632.39 -3.78639 1.22648e-14)
(2636.08 -2.68847 1.13349e-16)
(2631.54 -3.31261 1.05084e-16)
(2632.23 -3.0489 -5.10723e-17)
(2632.19 -3.12155 -1.15894e-16)
(2632.2 -3.16998 -2.36658e-17)
(2632.2 -3.22118 4.72188e-17)
(2632.28 -3.21719 -1.07879e-14)
(2635.98 -2.54716 2.34626e-14)
(2631.36 -2.76421 -2.09535e-15)
(2632.1 -2.79462 -2.56077e-14)
(2632.05 -2.83875 -9.43617e-15)
(2632.06 -2.88378 1.39754e-14)
(2632.13 -2.8803 -8.22568e-16)
(2636.02 -2.65775 -8.48016e-15)
(2631.5 -2.71966 7.52313e-16)
(2632.23 -2.757 -1.20488e-14)
(2632.18 -2.79915 1.3023e-14)
(2632.19 -2.84238 2.20849e-14)
(2632.27 -2.83907 -1.76236e-15)
(2635.99 -2.86072 -1.17901e-14)
(2631.43 -3.09542 1.01798e-15)
(2632.16 -3.12066 -2.27783e-17)
(2632.12 -3.1698 2.28715e-14)
(2632.12 -3.21936 2.39605e-14)
(2632.2 -3.21556 1.14677e-15)
(2635.91 -0.308439 -6.61845e-16)
(2631.4 -4.02677 3.92538e-17)
(2632.12 -3.66755 -1.23727e-18)
(2632.08 -3.74586 1.42562e-14)
(2632.08 -3.8026 -1.0668e-15)
(2632.08 -3.86204 4.88018e-17)
(2632.16 -3.8576 -1.23988e-14)
)
;

boundaryField
{
    inlet
    {
        type            calculated;
        value           nonuniform List<vector> 0();
    }
    outlet2
    {
        type            calculated;
        value           uniform (0 0 0);
    }
    outlet1
    {
        type            calculated;
        value           uniform (0 0 0);
    }
    wall
    {
        type            calculated;
        value           uniform (0 0 0);
    }
    symmetryBottom
    {
        type            symmetry;
    }
    symmetryZ0
    {
        type            symmetry;
    }
    symmetryZ05
    {
        type            symmetry;
    }
    procBoundary0to1
    {
        type            processor;
        value           uniform (0 0 0);
    }
}


// ************************************************************************* //
