/*--------------------------------*- C++ -*----------------------------------*\
| =========                 |                                                 |
| \\      /  F ield         | OpenFOAM: The Open Source CFD Toolbox           |
|  \\    /   O peration     | Version:  2412                                  |
|   \\  /    A nd           | Website:  www.openfoam.com                      |
|    \\/     M anipulation  |                                                 |
\*---------------------------------------------------------------------------*/
FoamFile
{
    version     2.0;
    format      ascii;
    arch        "LSB;label=32;scalar=64";
    class       volScalarField;
    location    "1.5e-06";
    object      E_dof0;
}
// * * * * * * * * * * * * * * * * * * * * * * * * * * * * * * * * * * * * * //

dimensions      [0 0 0 0 0 0 0];

internalField   nonuniform List<scalar> 
84
(
99.3731
89.9454
90.1659
90.1632
90.1637
90.1642
90.1647
90.308
100.766
91.2329
91.4754
91.4924
91.5133
91.5349
91.5571
91.702
100.592
91.1269
91.3409
91.3566
91.3754
91.3948
91.4148
91.5596
100.474
90.986
91.2242
91.2377
91.2549
91.2726
91.4173
100.358
90.8524
91.0887
91.1001
91.1152
91.1307
91.2752
100.215
90.7202
90.9543
90.9635
90.9765
90.9898
91.1341
100.075
90.5909
90.8227
90.83
90.8408
90.8519
90.9961
99.9199
90.4771
90.6921
90.6978
90.7065
90.7155
90.8595
99.806
90.3547
90.5824
90.586
90.5931
90.737
99.634
90.1811
90.406
90.4069
90.4112
90.5549
99.4918
90.0565
90.279
90.278
90.2802
90.4238
99.2107
89.9341
90.1452
90.1422
90.1423
90.1424
90.2858
)
;

boundaryField
{
    inlet
    {
        type            calculated;
        value           nonuniform List<scalar> 0();
    }
    outlet2
    {
        type            calculated;
        value           uniform 99.4306;
    }
    outlet1
    {
        type            calculated;
        value           uniform 99.4306;
    }
    wall
    {
        type            calculated;
        value           uniform 99.4306;
    }
    symmetryBottom
    {
        type            symmetry;
    }
    symmetryZ0
    {
        type            symmetry;
    }
    symmetryZ05
    {
        type            symmetry;
    }
    procBoundary0to1
    {
        type            processor;
        value           uniform 99.4306;
    }
}


// ************************************************************************* //
