/*--------------------------------*- C++ -*----------------------------------*\
| =========                 |                                                 |
| \\      /  F ield         | OpenFOAM: The Open Source CFD Toolbox           |
|  \\    /   O peration     | Version:  2412                                  |
|   \\  /    A nd           | Website:  www.openfoam.com                      |
|    \\/     M anipulation  |                                                 |
\*---------------------------------------------------------------------------*/
FoamFile
{
    version     2.0;
    format      ascii;
    arch        "LSB;label=32;scalar=64";
    class       volScalarField;
    location    "1.5e-06";
    object      rho;
}
// * * * * * * * * * * * * * * * * * * * * * * * * * * * * * * * * * * * * * //

dimensions      [0 0 0 0 0 0 0];

internalField   nonuniform List<scalar> 
84
(
2.80969e-05
2.54611e-05
2.55221e-05
2.55215e-05
2.55217e-05
2.55218e-05
2.5522e-05
2.55621e-05
2.84822e-05
2.58177e-05
2.58847e-05
2.58895e-05
2.58954e-05
2.59014e-05
2.59076e-05
2.59481e-05
2.84338e-05
2.57879e-05
2.58471e-05
2.58515e-05
2.58568e-05
2.58622e-05
2.58678e-05
2.59083e-05
2.84007e-05
2.57486e-05
2.58145e-05
2.58183e-05
2.58231e-05
2.58281e-05
2.58685e-05
2.83682e-05
2.57113e-05
2.57766e-05
2.57798e-05
2.5784e-05
2.57884e-05
2.58288e-05
2.83281e-05
2.5674e-05
2.57388e-05
2.57414e-05
2.5745e-05
2.57487e-05
2.57891e-05
2.82879e-05
2.56369e-05
2.5701e-05
2.5703e-05
2.5706e-05
2.57091e-05
2.57494e-05
2.82432e-05
2.56038e-05
2.56632e-05
2.56648e-05
2.56672e-05
2.56697e-05
2.57099e-05
2.82058e-05
2.55643e-05
2.5627e-05
2.5628e-05
2.56298e-05
2.567e-05
2.81704e-05
2.55275e-05
2.55897e-05
2.55901e-05
2.55913e-05
2.56315e-05
2.81275e-05
2.54898e-05
2.55513e-05
2.5551e-05
2.55517e-05
2.55918e-05
2.80477e-05
2.54549e-05
2.55132e-05
2.55124e-05
2.55124e-05
2.55124e-05
2.55525e-05
)
;

boundaryField
{
    inlet
    {
        type            calculated;
        value           nonuniform List<scalar> 0();
    }
    outlet2
    {
        type            calculated;
        value           uniform 0;
    }
    outlet1
    {
        type            calculated;
        value           uniform 0;
    }
    wall
    {
        type            calculated;
        value           uniform 0;
    }
    symmetryBottom
    {
        type            symmetry;
    }
    symmetryZ0
    {
        type            symmetry;
    }
    symmetryZ05
    {
        type            symmetry;
    }
    procBoundary0to1
    {
        type            processor;
        value           uniform 0;
    }
}


// ************************************************************************* //
