/*--------------------------------*- C++ -*----------------------------------*\
| =========                 |                                                 |
| \\      /  F ield         | OpenFOAM: The Open Source CFD Toolbox           |
|  \\    /   O peration     | Version:  2412                                  |
|   \\  /    A nd           | Website:  www.openfoam.com                      |
|    \\/     M anipulation  |                                                 |
\*---------------------------------------------------------------------------*/
FoamFile
{
    version     2.0;
    format      ascii;
    arch        "LSB;label=32;scalar=64";
    class       volScalarField;
    location    "3.8e-06";
    object      E_dof0;
}
// * * * * * * * * * * * * * * * * * * * * * * * * * * * * * * * * * * * * * //

dimensions      [0 0 0 0 0 0 0];

internalField   nonuniform List<scalar> 
84
(
99.434
47.1545
54.582
99.4475
47.1725
54.5981
99.4441
47.1703
54.5957
99.4441
47.1703
54.5957
99.4441
47.1703
54.5957
99.4441
47.1703
54.5957
99.4441
47.1703
54.5957
99.4441
47.1703
54.5957
99.4441
47.1703
54.5957
99.4441
47.1703
54.5957
99.4441
47.1702
54.5957
99.4442
47.1661
54.5928
79.2332
77.5649
77.9235
82.0869
80.2605
80.6349
81.7911
79.9809
80.3518
81.4961
79.7022
79.8112
77.4491
81.2018
79.4242
79.5283
79.8239
80.9094
79.1478
79.247
79.5419
80.6236
78.8776
78.972
79.2662
80.3429
78.6121
78.7019
78.9942
80.0878
78.3694
78.455
78.466
77.5272
79.7209
78.0265
78.106
78.1119
78.4054
79.4488
77.7687
77.8436
77.8463
78.1897
79.1692
77.5041
77.5745
77.8645
)
;

boundaryField
{
    inlet
    {
        type            calculated;
        value           uniform 99.4306;
    }
    outlet2
    {
        type            calculated;
        value           uniform 99.4306;
    }
    outlet1
    {
        type            calculated;
        value           nonuniform List<scalar> 0();
    }
    wall
    {
        type            calculated;
        value           uniform 99.4306;
    }
    symmetryBottom
    {
        type            symmetry;
    }
    symmetryZ0
    {
        type            symmetry;
    }
    symmetryZ05
    {
        type            symmetry;
    }
    procBoundary1to0
    {
        type            processor;
        value           uniform 99.4306;
    }
}


// ************************************************************************* //
