/*--------------------------------*- C++ -*----------------------------------*\
| =========                 |                                                 |
| \\      /  F ield         | OpenFOAM: The Open Source CFD Toolbox           |
|  \\    /   O peration     | Version:  2412                                  |
|   \\  /    A nd           | Website:  www.openfoam.com                      |
|    \\/     M anipulation  |                                                 |
\*---------------------------------------------------------------------------*/
FoamFile
{
    version     2.0;
    format      ascii;
    arch        "LSB;label=32;scalar=64";
    class       volVectorField;
    location    "3.7e-06";
    object      rhoU;
}
// * * * * * * * * * * * * * * * * * * * * * * * * * * * * * * * * * * * * * //

dimensions      [0 0 0 0 0 0 0];

internalField   nonuniform List<vector> 
84
(
(0.0734779 0.000107403 1.09485e-19)
(0.0574015 8.55931e-05 -1.07937e-19)
(0.0583619 8.82255e-05 -2.31786e-19)
(0.058326 8.94738e-05 1.17691e-19)
(0.0583285 9.08156e-05 -8.59354e-21)
(0.05833 9.21965e-05 1.42104e-20)
(0.0583316 9.36201e-05 2.21158e-19)
(0.0585675 9.39056e-05 4.20109e-20)
(0.0760053 -0.000112272 1.13208e-19)
(0.0594204 -9.04241e-05 -1.07261e-19)
(0.0604424 -9.31094e-05 -2.81482e-19)
(0.060437 -9.45155e-05 2.11665e-20)
(0.0604721 -9.60143e-05 -5.14707e-19)
(0.0605072 -9.75601e-05 8.95234e-20)
(0.0605435 -9.91564e-05 4.1455e-19)
(0.060786 -9.94395e-05 8.47655e-20)
(0.0756042 -0.000104843 -4.88524e-19)
(0.0593362 -9.61164e-05 8.00454e-20)
(0.0602168 -9.23577e-05 1.51289e-19)
(0.0602178 -9.42102e-05 -1.09161e-20)
(0.060249 -9.56804e-05 -4.96796e-21)
(0.0602805 -9.72161e-05 2.14268e-19)
(0.0603131 -9.88014e-05 -1.7287e-19)
(0.0605549 -9.90838e-05 -2.13398e-19)
(0.0754003 -0.000107699 -4.77647e-19)
(0.0590298 -9.13527e-05 2.25481e-19)
(0.0600367 -9.39147e-05 -1.51255e-20)
(0.0600256 -9.53476e-05 -4.613e-19)
(0.0600547 -9.68735e-05 4.38879e-19)
(0.0600836 -9.84477e-05 8.77532e-20)
(0.0603247 -9.87294e-05 -1.73272e-19)
(0.075254 -0.000112941 -2.76475e-19)
(0.0588133 -9.08439e-05 -8.64141e-20)
(0.0598184 -9.36162e-05 5.59879e-21)
(0.0598039 -9.50336e-05 1.70661e-21)
(0.0598294 -9.65497e-05 -1.58555e-19)
(0.0598546 -9.81134e-05 1.22562e-19)
(0.0600951 -9.83946e-05 2.93755e-19)
(0.0749892 -0.000107918 -1.69235e-19)
(0.0586011 -8.66982e-05 2.49395e-19)
(0.0595997 -8.93698e-05 -1.58043e-20)
(0.0595818 -9.07345e-05 3.00311e-19)
(0.0596038 -9.21951e-05 -2.69903e-19)
(0.0596253 -9.37019e-05 2.33019e-19)
(0.0598651 -9.39718e-05 -4.96878e-19)
(0.0747228 -8.66838e-05 -4.25014e-23)
(0.0583886 -6.96406e-05 2.4522e-19)
(0.0593801 -7.17565e-05 -1.55217e-20)
(0.059359 -7.28493e-05 -2.34994e-22)
(0.0593774 -7.40166e-05 2.51543e-19)
(0.0593952 -7.52209e-05 3.76387e-20)
(0.0596344 -7.54388e-05 2.53407e-19)
(0.0743868 -6.73916e-05 2.47938e-21)
(0.058249 -6.35733e-05 1.72456e-21)
(0.0591589 -6.03089e-05 -9.55906e-22)
(0.0591399 -6.15964e-05 -2.02226e-21)
(0.0591546 -6.25727e-05 -3.9341e-22)
(0.0591689 -6.35955e-05 7.69778e-22)
(0.0594074 -6.37803e-05 -2.22679e-19)
(0.074141 -6.34725e-05 5.90298e-19)
(0.0579745 -5.3562e-05 -3.50129e-20)
(0.0589509 -5.51042e-05 -5.07496e-19)
(0.0589234 -5.59456e-05 -1.87647e-19)
(0.0589349 -5.68437e-05 2.80668e-19)
(0.0591727 -5.70108e-05 -1.05168e-20)
(0.0739591 -6.58612e-05 -2.12467e-19)
(0.057776 -5.27087e-05 1.24919e-20)
(0.0587493 -5.43351e-05 -2.42817e-19)
(0.0587188 -5.5139e-05 2.59548e-19)
(0.0587274 -5.60011e-05 4.39999e-19)
(0.0589645 -5.61679e-05 -3.09025e-20)
(0.0736553 -7.09215e-05 -2.90575e-19)
(0.0575636 -5.96014e-05 1.67473e-20)
(0.0585272 -6.11847e-05 -2.80349e-22)
(0.0584935 -6.21071e-05 4.51756e-19)
(0.0584983 -6.30847e-05 4.78091e-19)
(0.0587348 -6.3272e-05 2.63307e-20)
(0.0731485 -6.76199e-06 -1.47324e-20)
(0.057394 -7.63967e-05 5.71452e-22)
(0.0583104 -7.17519e-05 -1.59429e-23)
(0.058276 -7.31331e-05 2.8304e-19)
(0.0582773 -7.42499e-05 -1.83941e-20)
(0.0582777 -7.54123e-05 7.30077e-22)
(0.0585135 -7.56388e-05 -2.52183e-19)
)
;

boundaryField
{
    inlet
    {
        type            calculated;
        value           nonuniform List<vector> 0();
    }
    outlet2
    {
        type            calculated;
        value           uniform (0 0 0);
    }
    outlet1
    {
        type            calculated;
        value           uniform (0 0 0);
    }
    wall
    {
        type            calculated;
        value           uniform (0 0 0);
    }
    symmetryBottom
    {
        type            symmetry;
    }
    symmetryZ0
    {
        type            symmetry;
    }
    symmetryZ05
    {
        type            symmetry;
    }
    procBoundary0to1
    {
        type            processor;
        value           uniform (0 0 0);
    }
}


// ************************************************************************* //
