/*--------------------------------*- C++ -*----------------------------------*\
| =========                 |                                                 |
| \\      /  F ield         | OpenFOAM: The Open Source CFD Toolbox           |
|  \\    /   O peration     | Version:  2412                                  |
|   \\  /    A nd           | Website:  www.openfoam.com                      |
|    \\/     M anipulation  |                                                 |
\*---------------------------------------------------------------------------*/
FoamFile
{
    version     2.0;
    format      ascii;
    arch        "LSB;label=32;scalar=64";
    class       volScalarField;
    location    "6.7e-06";
    object      E;
}
// * * * * * * * * * * * * * * * * * * * * * * * * * * * * * * * * * * * * * //

dimensions      [0 0 0 0 0 0 0];

internalField   nonuniform List<scalar> 
84
(
99.4399
16.7568
36.8408
99.4766
16.7823
36.8664
99.4673
16.7791
36.8615
99.4673
16.7791
36.8615
99.4673
16.7791
36.8615
99.4673
16.7791
36.8615
99.4673
16.7791
36.8615
99.4673
16.7791
36.8615
99.4673
16.7791
36.8615
99.4673
16.7791
36.8615
99.4673
16.779
36.8615
99.4675
16.773
36.8587
68.178
64.0267
64.7969
72.6281
67.9468
68.7843
72.1575
67.5321
68.3571
71.6894
67.1198
67.5332
63.8752
71.2233
66.7093
67.1116
67.5546
70.7595
66.3006
66.6919
67.133
70.3066
65.901
66.2817
66.7209
69.8663
65.5122
65.8827
66.317
69.459
65.148
65.5096
65.5101
64.0908
68.9019
64.6679
65.015
65.0085
65.4549
68.4684
64.2843
64.6214
64.611
65.2014
68.0383
63.904
64.2315
64.6601
)
;

boundaryField
{
    inlet
    {
        type            calculated;
        value           uniform 0;
    }
    outlet2
    {
        type            calculated;
        value           uniform 0;
    }
    outlet1
    {
        type            calculated;
        value           nonuniform List<scalar> 0();
    }
    wall
    {
        type            calculated;
        value           uniform 0;
    }
    symmetryBottom
    {
        type            symmetry;
    }
    symmetryZ0
    {
        type            symmetry;
    }
    symmetryZ05
    {
        type            symmetry;
    }
    procBoundary1to0
    {
        type            processor;
        value           uniform 0;
    }
}


// ************************************************************************* //
