/*--------------------------------*- C++ -*----------------------------------*\
| =========                 |                                                 |
| \\      /  F ield         | OpenFOAM: The Open Source CFD Toolbox           |
|  \\    /   O peration     | Version:  2412                                  |
|   \\  /    A nd           | Website:  www.openfoam.com                      |
|    \\/     M anipulation  |                                                 |
\*---------------------------------------------------------------------------*/
FoamFile
{
    version     2.0;
    format      ascii;
    arch        "LSB;label=32;scalar=64";
    class       volScalarField;
    location    "6.7e-06";
    object      T;
}
// * * * * * * * * * * * * * * * * * * * * * * * * * * * * * * * * * * * * * //

dimensions      [0 0 0 0 0 0 0];

internalField   nonuniform List<scalar> 
84
(
200.013
195.693
200.297
199.97
195.543
200.215
199.959
195.523
200.2
199.959
195.523
200.2
199.959
195.523
200.2
199.959
195.523
200.2
199.959
195.523
200.2
199.959
195.523
200.2
199.959
195.523
200.2
199.959
195.523
200.2
199.959
195.523
200.2
199.959
195.479
200.191
204.252
203.97
204.001
200.025
199.986
199.999
200.025
199.986
200
200.025
199.986
199.999
200.033
200.031
199.992
200.004
200.003
200.645
200.562
200.583
200.581
203.789
203.523
203.608
203.599
206.762
206.314
206.461
206.446
219.718
218.261
218.723
219.024
198.008
192.787
193.111
192.984
192.878
192.496
198.282
198.343
198.32
198.295
198.433
199.294
199.297
199.294
199.295
)
;

boundaryField
{
    inlet
    {
        type            calculated;
        value           uniform 0;
    }
    outlet2
    {
        type            calculated;
        value           uniform 0;
    }
    outlet1
    {
        type            calculated;
        value           nonuniform List<scalar> 0();
    }
    wall
    {
        type            calculated;
        value           uniform 0;
    }
    symmetryBottom
    {
        type            symmetry;
    }
    symmetryZ0
    {
        type            symmetry;
    }
    symmetryZ05
    {
        type            symmetry;
    }
    procBoundary1to0
    {
        type            processor;
        value           uniform 0;
    }
}


// ************************************************************************* //
