/*--------------------------------*- C++ -*----------------------------------*\
| =========                 |                                                 |
| \\      /  F ield         | OpenFOAM: The Open Source CFD Toolbox           |
|  \\    /   O peration     | Version:  2412                                  |
|   \\  /    A nd           | Website:  www.openfoam.com                      |
|    \\/     M anipulation  |                                                 |
\*---------------------------------------------------------------------------*/
FoamFile
{
    version     2.0;
    format      ascii;
    arch        "LSB;label=32;scalar=64";
    class       volScalarField;
    location    "8.4e-06";
    object      E_dof0;
}
// * * * * * * * * * * * * * * * * * * * * * * * * * * * * * * * * * * * * * //

dimensions      [0 0 0 0 0 0 0];

internalField   nonuniform List<scalar> 
84
(
101.832
55.4006
58.5414
58.4165
58.438
58.4571
58.4315
59.0754
108.359
59.0375
62.4317
62.3587
62.443
62.5265
62.5703
63.2462
107.071
59.057
61.9498
61.9112
61.9871
62.064
62.1007
62.7728
106.01
58.262
61.5435
61.4624
61.5357
61.5629
62.231
106.024
57.7289
61.0371
60.9462
61.0111
61.0291
61.6931
105.189
57.2569
60.5323
60.4344
60.4908
60.4997
61.1597
104.349
56.7909
60.0315
59.9268
59.9749
59.9749
60.6309
103.276
56.5226
59.5179
59.4243
59.4634
59.4547
60.1066
102.352
55.9129
59.0657
58.9514
58.939
59.5868
101.909
55.4235
58.5707
58.4485
58.4276
59.0714
101.035
54.9683
58.0784
57.9498
57.9205
58.5605
99.3872
54.6186
57.5817
57.4521
57.4604
57.4181
58.0542
)
;

boundaryField
{
    inlet
    {
        type            calculated;
        value           nonuniform List<scalar> 0();
    }
    outlet2
    {
        type            calculated;
        value           uniform 99.4306;
    }
    outlet1
    {
        type            calculated;
        value           uniform 99.4306;
    }
    wall
    {
        type            calculated;
        value           uniform 99.4306;
    }
    symmetryBottom
    {
        type            symmetry;
    }
    symmetryZ0
    {
        type            symmetry;
    }
    symmetryZ05
    {
        type            symmetry;
    }
    procBoundary0to1
    {
        type            processor;
        value           uniform 99.4306;
    }
}


// ************************************************************************* //
