/*--------------------------------*- C++ -*----------------------------------*\
| =========                 |                                                 |
| \\      /  F ield         | OpenFOAM: The Open Source CFD Toolbox           |
|  \\    /   O peration     | Version:  2412                                  |
|   \\  /    A nd           | Website:  www.openfoam.com                      |
|    \\/     M anipulation  |                                                 |
\*---------------------------------------------------------------------------*/
FoamFile
{
    version     2.0;
    format      ascii;
    arch        "LSB;label=32;scalar=64";
    class       volVectorField;
    location    "8.4e-06";
    object      rhoU_dof0;
}
// * * * * * * * * * * * * * * * * * * * * * * * * * * * * * * * * * * * * * //

dimensions      [0 0 0 0 0 0 0];

internalField   nonuniform List<vector> 
84
(
(0.0758739 -4.14591e-06 2.95239e-19)
(0.0414405 -2.69354e-06 -1.67516e-19)
(0.0437568 -2.85066e-06 -4.66276e-19)
(0.0436653 -2.93296e-06 2.3503e-19)
(0.0436811 -3.02153e-06 -2.09627e-20)
(0.0436952 -3.11394e-06 -1.35055e-20)
(0.0436763 -3.21781e-06 4.14941e-19)
(0.0441542 -3.22658e-06 4.93236e-20)
(0.0807194 -0.000266299 2.85843e-19)
(0.0441497 -0.000150592 -1.65325e-19)
(0.0466531 -0.000160718 -5.79316e-19)
(0.0466003 -0.000162961 1.18128e-19)
(0.0466628 -0.000165629 -1.01279e-18)
(0.0467249 -0.000168369 1.26734e-19)
(0.0467576 -0.000171328 8.12531e-19)
(0.0472591 -0.0001726 1.4874e-19)
(0.0797673 -0.000248421 -1.3028e-18)
(0.0441614 -0.000167622 1.43728e-19)
(0.0462953 -0.000160992 2.83438e-19)
(0.0462676 -0.000164669 -1.9959e-20)
(0.0463239 -0.000167322 -5.10943e-20)
(0.0463811 -0.000170119 4.37342e-19)
(0.0464085 -0.000173139 -2.99054e-19)
(0.0469073 -0.000174419 -3.75397e-19)
(0.0789828 -0.000240043 -1.28599e-18)
(0.0435725 -0.000155165 4.6293e-19)
(0.045993 -0.00016358 2.92266e-20)
(0.0459342 -0.000165988 -9.45657e-19)
(0.0459885 -0.000168749 8.57024e-19)
(0.046009 -0.000171721 1.55773e-19)
(0.0465047 -0.000172996 -2.90098e-19)
(0.0789901 -0.000268683 -6.86814e-19)
(0.0431766 -0.000151925 -1.42586e-19)
(0.0456168 -0.000162356 1.049e-20)
(0.0455506 -0.000164632 1.63416e-20)
(0.0455987 -0.000167352 -3.02726e-19)
(0.0456123 -0.000170276 1.85488e-19)
(0.046105 -0.000171544 5.52421e-19)
(0.0783712 -0.000267104 -4.42986e-19)
(0.0428257 -0.000150689 5.00855e-19)
(0.0452417 -0.000161054 -7.63575e-20)
(0.0451703 -0.00016329 6.26632e-19)
(0.0452121 -0.000165967 -5.70497e-19)
(0.045219 -0.000168842 5.01625e-19)
(0.0457087 -0.000170104 -8.83744e-19)
(0.0777487 -0.000264927 -3.80378e-20)
(0.0424792 -0.000149584 4.72293e-19)
(0.0448695 -0.000159752 -3.2408e-20)
(0.0447931 -0.000161959 -2.96092e-20)
(0.0448288 -0.000164593 4.93365e-19)
(0.044829 -0.000167421 3.35469e-20)
(0.0453158 -0.000168677 4.64881e-19)
(0.0769547 -0.000245039 5.80936e-21)
(0.0422784 -0.00016343 6.46408e-21)
(0.044488 -0.000157184 -1.61071e-21)
(0.0444196 -0.000160702 -5.74979e-21)
(0.0444486 -0.000163228 1.87773e-21)
(0.0444423 -0.000166011 2.66822e-20)
(0.0449262 -0.000167261 -3.71003e-19)
(0.0762707 -0.000234702 1.53348e-18)
(0.0418259 -0.000151399 -3.0027e-20)
(0.0441518 -0.000159587 -9.34625e-19)
(0.0440682 -0.00016187 -3.48411e-19)
(0.0440591 -0.000164613 5.27125e-19)
(0.0445399 -0.000165856 -2.15244e-20)
(0.0759411 -0.000262621 -5.32172e-19)
(0.0414623 -0.000148222 6.78946e-20)
(0.0437839 -0.000158372 -5.1757e-19)
(0.0436944 -0.000160527 4.64418e-19)
(0.043679 -0.000163227 8.55562e-19)
(0.0441569 -0.000164464 -7.23072e-20)
(0.0752936 -0.000246211 -7.10599e-19)
(0.0411237 -0.000148266 4.63517e-20)
(0.043418 -0.00015702 -5.96123e-20)
(0.0433237 -0.000159199 8.05262e-19)
(0.0433021 -0.000161852 9.1482e-19)
(0.0437771 -0.000163083 2.15428e-20)
(0.0740728 -1.36103e-05 -3.4264e-20)
(0.0408628 -0.000173156 2.46969e-21)
(0.0430489 -0.000151418 -3.87327e-20)
(0.0429538 -0.000155457 5.6765e-19)
(0.0429599 -0.000157799 -4.09195e-20)
(0.0429287 -0.0001604 3.53233e-20)
(0.0434009 -0.00016163 -4.70678e-19)
)
;

boundaryField
{
    inlet
    {
        type            calculated;
        value           nonuniform List<vector> 0();
    }
    outlet2
    {
        type            calculated;
        value           uniform (0.0741049 0 0);
    }
    outlet1
    {
        type            calculated;
        value           uniform (0.0741049 0 0);
    }
    wall
    {
        type            calculated;
        value           uniform (0.0741049 0 0);
    }
    symmetryBottom
    {
        type            symmetry;
    }
    symmetryZ0
    {
        type            symmetry;
    }
    symmetryZ05
    {
        type            symmetry;
    }
    procBoundary0to1
    {
        type            processor;
        value           uniform (0.0741049 0 0);
    }
}


// ************************************************************************* //
