/*--------------------------------*- C++ -*----------------------------------*\
| =========                 |                                                 |
| \\      /  F ield         | OpenFOAM: The Open Source CFD Toolbox           |
|  \\    /   O peration     | Version:  2412                                  |
|   \\  /    A nd           | Website:  www.openfoam.com                      |
|    \\/     M anipulation  |                                                 |
\*---------------------------------------------------------------------------*/
FoamFile
{
    version     2.0;
    format      ascii;
    arch        "LSB;label=32;scalar=64";
    class       volScalarField;
    location    "2e-06";
    object      E;
}
// * * * * * * * * * * * * * * * * * * * * * * * * * * * * * * * * * * * * * //

dimensions      [0 0 0 0 0 0 0];

internalField   nonuniform List<scalar> 
84
(
99.4315
69.9265
72.1351
99.4355
69.9354
72.1433
99.4345
69.9345
72.1424
99.4345
69.9345
72.1424
99.4345
69.9345
72.1424
99.4345
69.9345
72.1424
99.4345
69.9345
72.1424
99.4345
69.9345
72.1424
99.4345
69.9345
72.1424
99.4345
69.9345
72.1424
99.4345
69.9345
72.1424
99.4346
69.9321
72.1403
87.7801
87.2614
87.4377
89.4071
88.8563
89.0359
89.2405
88.6929
88.8717
89.0741
88.5297
88.56
87.2096
88.908
88.3668
88.3946
88.564
88.743
88.2051
88.2304
88.3996
88.5817
88.0469
88.0698
88.2388
88.4223
87.8905
87.9111
88.0795
88.2792
87.7497
87.7682
87.7757
87.2321
88.0665
87.5423
87.5577
87.5622
87.7316
87.9133
87.3918
87.405
87.4074
87.5906
87.7526
87.2342
87.245
87.4127
)
;

boundaryField
{
    inlet
    {
        type            calculated;
        value           uniform 0;
    }
    outlet2
    {
        type            calculated;
        value           uniform 0;
    }
    outlet1
    {
        type            calculated;
        value           nonuniform List<scalar> 0();
    }
    wall
    {
        type            calculated;
        value           uniform 0;
    }
    symmetryBottom
    {
        type            symmetry;
    }
    symmetryZ0
    {
        type            symmetry;
    }
    symmetryZ05
    {
        type            symmetry;
    }
    procBoundary1to0
    {
        type            processor;
        value           uniform 0;
    }
}


// ************************************************************************* //
