/*--------------------------------*- C++ -*----------------------------------*\
| =========                 |                                                 |
| \\      /  F ield         | OpenFOAM: The Open Source CFD Toolbox           |
|  \\    /   O peration     | Version:  2412                                  |
|   \\  /    A nd           | Website:  www.openfoam.com                      |
|    \\/     M anipulation  |                                                 |
\*---------------------------------------------------------------------------*/
FoamFile
{
    version     2.0;
    format      ascii;
    arch        "LSB;label=32;scalar=64";
    class       volVectorField;
    location    "2e-06";
    object      U;
}
// * * * * * * * * * * * * * * * * * * * * * * * * * * * * * * * * * * * * * //

dimensions      [0 0 0 0 0 0 0];

internalField   nonuniform List<vector> 
84
(
(2636.39 -0.00247032 0)
(2630.31 -0.0120293 0)
(2631.38 -0.0104353 -3.05109e-15)
(2636.39 -1.84658 0)
(2630.31 -2.03614 0)
(2631.38 -2.01986 -3.05072e-15)
(2636.39 -1.84389 0)
(2630.31 -2.03312 0)
(2631.38 -2.01687 4.65242e-15)
(2636.39 -1.84389 0)
(2630.31 -2.03312 0)
(2631.38 -2.01687 -5.94951e-15)
(2636.39 -1.84389 0)
(2630.31 -2.03312 0)
(2631.38 -2.01687 -1.00677e-14)
(2636.39 -1.84389 0)
(2630.31 -2.03312 0)
(2631.38 -2.01687 5.7202e-15)
(2636.39 -1.84389 0)
(2630.31 -2.03312 0)
(2631.38 -2.01687 -7.09354e-15)
(2636.39 -1.84389 0)
(2630.31 -2.03312 0)
(2631.38 -2.01687 -8.31357e-15)
(2636.39 -1.84389 0)
(2630.31 -2.03312 0)
(2631.38 -2.01687 2.97441e-15)
(2636.39 -1.84389 0)
(2630.31 -2.03312 0)
(2631.38 -2.01687 -7.01754e-15)
(2636.39 -1.84389 0)
(2630.31 -2.0331 0)
(2631.38 -2.01685 -1.74663e-14)
(2636.39 -1.84415 0)
(2630.31 -2.02426 0)
(2631.38 -2.00956 0)
(2634.14 2.08296 7.99457e-17)
(2633.96 2.05393 2.20572e-15)
(2633.99 2.05412 2.18787e-16)
(2634.82 -2.04017 7.49709e-17)
(2634.62 -2.07011 2.32505e-15)
(2634.66 -2.06886 -1.83451e-17)
(2634.79 -2.04059 -1.22985e-16)
(2634.59 -2.07048 -1.06485e-15)
(2634.63 -2.0686 -4.64714e-15)
(2634.76 -2.04097 1.60195e-16)
(2634.57 -2.07085 -3.8658e-17)
(2634.58 -2.1002 1.04462e-18)
(2634.33 0.0460228 3.32751e-15)
(2634.73 -2.04148 -9.68576e-16)
(2634.54 -2.07135 -3.70339e-18)
(2634.55 -2.10072 -3.55616e-17)
(2634.58 -2.09948 3.29763e-15)
(2634.69 -1.94133 -1.56936e-16)
(2634.5 -1.97271 -2.3389e-15)
(2634.51 -2.00079 5.93898e-18)
(2634.54 -1.99964 2.23291e-15)
(2634.62 -1.55438 1.78128e-16)
(2634.43 -1.59072 -7.85583e-18)
(2634.44 -1.61313 -1.41273e-17)
(2634.47 -1.61222 -1.85236e-17)
(2634.58 -1.30465 2.42593e-16)
(2634.39 -1.34425 -2.23999e-15)
(2634.4 -1.36307 2.4131e-15)
(2634.43 -1.36185 1.92971e-17)
(2634.54 -1.17566 -8.02759e-17)
(2634.35 -1.21679 -3.45951e-15)
(2634.36 -1.23361 -3.41179e-15)
(2634.36 -1.25143 3.6962e-15)
(2634.32 0.0493231 2.33135e-14)
(2634.54 -1.17604 2.04123e-16)
(2634.37 -1.21704 -3.48122e-15)
(2634.37 -1.23368 2.34564e-15)
(2634.37 -1.25132 5.65916e-15)
(2634.4 -1.25294 3.64049e-15)
(2634.53 -1.32949 5.00174e-16)
(2634.35 -1.36843 -9.05773e-18)
(2634.35 -1.38738 4.58689e-18)
(2634.35 -1.40777 -9.23322e-19)
(2634.38 -1.43771 -3.41814e-15)
(2634.51 -1.60841 2.55809e-18)
(2634.33 -1.64322 3.33573e-15)
(2634.33 -1.66622 -1.04312e-16)
(2634.37 -1.66507 -5.84186e-15)
)
;

boundaryField
{
    inlet
    {
        type            calculated;
        value           uniform (0 0 0);
    }
    outlet2
    {
        type            calculated;
        value           uniform (0 0 0);
    }
    outlet1
    {
        type            calculated;
        value           nonuniform List<vector> 0();
    }
    wall
    {
        type            calculated;
        value           uniform (0 0 0);
    }
    symmetryBottom
    {
        type            symmetry;
    }
    symmetryZ0
    {
        type            symmetry;
    }
    symmetryZ05
    {
        type            symmetry;
    }
    procBoundary1to0
    {
        type            processor;
        value           uniform (0 0 0);
    }
}


// ************************************************************************* //
