/*--------------------------------*- C++ -*----------------------------------*\
| =========                 |                                                 |
| \\      /  F ield         | OpenFOAM: The Open Source CFD Toolbox           |
|  \\    /   O peration     | Version:  2412                                  |
|   \\  /    A nd           | Website:  www.openfoam.com                      |
|    \\/     M anipulation  |                                                 |
\*---------------------------------------------------------------------------*/
FoamFile
{
    version     2.0;
    format      ascii;
    arch        "LSB;label=32;scalar=64";
    class       volVectorField;
    location    "3e-06";
    object      rhoU_dof0;
}
// * * * * * * * * * * * * * * * * * * * * * * * * * * * * * * * * * * * * * //

dimensions      [0 0 0 0 0 0 0];

internalField   nonuniform List<vector> 
84
(
(0.073726 8.77817e-05 8.92106e-20)
(0.0603993 7.33354e-05 -9.01301e-20)
(0.0610409 7.51558e-05 -2.07437e-19)
(0.0610219 7.62468e-05 9.78928e-20)
(0.0610234 7.73946e-05 -5.15649e-21)
(0.0610245 7.85768e-05 1.1657e-20)
(0.0610257 7.97958e-05 1.93405e-19)
(0.0612235 7.99898e-05 4.30682e-20)
(0.0757805 -9.08026e-05 9.33864e-20)
(0.0621196 -7.65751e-05 -8.78579e-20)
(0.0628036 -7.84293e-05 -2.47809e-19)
(0.062811 -7.9625e-05 1.49105e-20)
(0.0628401 -8.08784e-05 -4.42375e-19)
(0.0628696 -8.21715e-05 6.86772e-20)
(0.0629001 -8.35066e-05 3.5853e-19)
(0.0631023 -8.36958e-05 7.451e-20)
(0.0754756 -8.5854e-05 -4.21435e-19)
(0.0620235 -8.02652e-05 6.42146e-20)
(0.0626164 -7.79905e-05 1.25819e-19)
(0.062626 -7.94143e-05 -7.62306e-21)
(0.062652 -8.06534e-05 -3.64257e-21)
(0.0626785 -8.19395e-05 1.80707e-19)
(0.0627059 -8.32671e-05 -1.43939e-19)
(0.0629077 -8.3456e-05 -1.8064e-19)
(0.0753069 -8.7969e-05 -4.16387e-19)
(0.0617872 -7.74107e-05 1.91887e-19)
(0.0624615 -7.92081e-05 -1.03083e-20)
(0.062464 -8.0429e-05 -3.98135e-19)
(0.062488 -8.17082e-05 3.74981e-19)
(0.0625123 -8.30284e-05 7.73137e-20)
(0.0627136 -8.32169e-05 -1.43771e-19)
(0.0751721 -9.14918e-05 -2.26868e-19)
(0.0616048 -7.70958e-05 -7.59321e-20)
(0.0622772 -7.90044e-05 3.88197e-21)
(0.0622768 -8.02163e-05 1.1671e-21)
(0.0622978 -8.14889e-05 -1.30576e-19)
(0.0623191 -8.28021e-05 1.00301e-19)
(0.06252 -8.29903e-05 2.61693e-19)
(0.0749577 -8.72718e-05 -1.37503e-19)
(0.0614248 -7.34642e-05 2.2108e-19)
(0.0620926 -7.52985e-05 -1.0706e-20)
(0.0620894 -7.64615e-05 2.64235e-19)
(0.0621074 -7.76831e-05 -2.34202e-19)
(0.0621256 -7.8944e-05 2.00592e-19)
(0.062326 -7.91246e-05 -4.32886e-19)
(0.0747422 -7.01742e-05 -2.9448e-23)
(0.0612443 -5.90524e-05 2.16813e-19)
(0.0619074 -6.05127e-05 -1.05329e-20)
(0.0619013 -6.14447e-05 -3.7496e-22)
(0.0619164 -6.2423e-05 2.19874e-19)
(0.0619315 -6.34325e-05 3.35288e-20)
(0.0621315 -6.35786e-05 2.2952e-19)
(0.0744799 -5.53731e-05 1.59431e-21)
(0.0611116 -5.29302e-05 1.09222e-21)
(0.061722 -5.09258e-05 -7.53842e-22)
(0.061716 -5.19005e-05 -1.38889e-21)
(0.061728 -5.27234e-05 -2.39753e-22)
(0.06174 -5.3579e-05 4.56057e-22)
(0.0619396 -5.3703e-05 -1.86839e-19)
(0.0742806 -5.19886e-05 4.9524e-19)
(0.0608927 -4.552e-05 -2.33241e-20)
(0.0615458 -4.66045e-05 -4.37784e-19)
(0.0615343 -4.73259e-05 -1.61745e-19)
(0.0615436 -4.8083e-05 2.3604e-19)
(0.0617427 -4.81956e-05 -1.46786e-22)
(0.0741211 -5.37103e-05 -1.74832e-19)
(0.060722 -4.50424e-05 8.31975e-21)
(0.0613724 -4.61706e-05 -2.17422e-19)
(0.0613584 -4.68687e-05 2.25814e-19)
(0.0613651 -4.76027e-05 3.81723e-19)
(0.0615637 -4.77155e-05 -2.05831e-20)
(0.0738804 -5.82687e-05 -2.34887e-19)
(0.0605411 -5.0786e-05 1.11155e-20)
(0.0611854 -5.1927e-05 -8.741e-23)
(0.0611684 -5.27208e-05 3.8982e-19)
(0.061172 -5.35508e-05 4.16263e-19)
(0.0613702 -5.36774e-05 2.64025e-20)
(0.0734658 -4.57176e-06 -1.00042e-20)
(0.0603892 -6.40681e-05 3.05723e-22)
(0.0610019 -6.10505e-05 -6.76652e-24)
(0.0609836 -6.21384e-05 2.48866e-19)
(0.0609842 -6.30931e-05 -1.26763e-20)
(0.0609845 -6.40824e-05 3.96871e-22)
(0.0611822 -6.42359e-05 -2.28513e-19)
)
;

boundaryField
{
    inlet
    {
        type            calculated;
        value           nonuniform List<vector> 0();
    }
    outlet2
    {
        type            calculated;
        value           uniform (0.0741049 0 0);
    }
    outlet1
    {
        type            calculated;
        value           uniform (0.0741049 0 0);
    }
    wall
    {
        type            calculated;
        value           uniform (0.0741049 0 0);
    }
    symmetryBottom
    {
        type            symmetry;
    }
    symmetryZ0
    {
        type            symmetry;
    }
    symmetryZ05
    {
        type            symmetry;
    }
    procBoundary0to1
    {
        type            processor;
        value           uniform (0.0741049 0 0);
    }
}


// ************************************************************************* //
