/*--------------------------------*- C++ -*----------------------------------*\
| =========                 |                                                 |
| \\      /  F ield         | OpenFOAM: The Open Source CFD Toolbox           |
|  \\    /   O peration     | Version:  2412                                  |
|   \\  /    A nd           | Website:  www.openfoam.com                      |
|    \\/     M anipulation  |                                                 |
\*---------------------------------------------------------------------------*/
FoamFile
{
    version     2.0;
    format      ascii;
    arch        "LSB;label=32;scalar=64";
    class       volScalarField;
    location    "3e-06";
    object      T;
}
// * * * * * * * * * * * * * * * * * * * * * * * * * * * * * * * * * * * * * //

dimensions      [0 0 0 0 0 0 0];

internalField   nonuniform List<scalar> 
84
(
201.821
201.857
201.894
201.922
201.951
201.982
202.013
202.012
199.994
199.99
200
199.999
199.999
199.999
199.999
199.999
199.987
199.99
200
199.999
199.999
199.999
199.999
199.999
199.994
199.99
200
199.999
199.999
199.999
199.999
199.995
199.991
200.001
200
200
200
200
200.314
200.325
200.338
200.342
200.346
200.351
200.35
201.637
201.687
201.72
201.745
201.772
201.8
201.798
202.838
202.987
203.017
203.065
203.113
203.162
203.159
207.572
208.199
208.312
208.448
208.588
208.579
196.825
196.741
196.704
196.65
196.596
196.599
199.212
199.219
199.216
199.203
199.19
199.191
199.953
199.663
199.677
199.671
199.666
199.66
199.661
)
;

boundaryField
{
    inlet
    {
        type            calculated;
        value           nonuniform List<scalar> 0();
    }
    outlet2
    {
        type            calculated;
        value           uniform 0;
    }
    outlet1
    {
        type            calculated;
        value           uniform 0;
    }
    wall
    {
        type            calculated;
        value           uniform 0;
    }
    symmetryBottom
    {
        type            symmetry;
    }
    symmetryZ0
    {
        type            symmetry;
    }
    symmetryZ05
    {
        type            symmetry;
    }
    procBoundary0to1
    {
        type            processor;
        value           uniform 0;
    }
}


// ************************************************************************* //
