/*--------------------------------*- C++ -*----------------------------------*\
| =========                 |                                                 |
| \\      /  F ield         | OpenFOAM: The Open Source CFD Toolbox           |
|  \\    /   O peration     | Version:  2412                                  |
|   \\  /    A nd           | Website:  www.openfoam.com                      |
|    \\/     M anipulation  |                                                 |
\*---------------------------------------------------------------------------*/
FoamFile
{
    version     2.0;
    format      ascii;
    arch        "LSB;label=32;scalar=64";
    class       volVectorField;
    location    "3e-06";
    object      U;
}
// * * * * * * * * * * * * * * * * * * * * * * * * * * * * * * * * * * * * * //

dimensions      [0 0 0 0 0 0 0];

internalField   nonuniform List<vector> 
84
(
(2635.61 3.13808 3.18916e-15)
(2632.39 3.19619 -3.92815e-15)
(2632.73 3.24152 -8.94689e-15)
(2632.71 3.28956 4.22345e-15)
(2632.7 3.33899 -2.22463e-16)
(2632.69 3.38992 5.02901e-16)
(2632.68 3.44243 8.34359e-15)
(2632.73 3.43972 1.85202e-15)
(2636.62 -3.15927 3.24917e-15)
(2633.44 -3.24626 -3.72457e-15)
(2633.79 -3.28908 -1.03923e-14)
(2633.78 -3.33883 6.25226e-16)
(2633.79 -3.38982 -1.85411e-14)
(2633.8 -3.44241 2.8771e-15)
(2633.81 -3.49666 1.50127e-14)
(2633.86 -3.49342 3.11001e-15)
(2636.54 -2.99908 -1.47217e-14)
(2633.44 -3.40796 2.72647e-15)
(2633.74 -3.2804 5.29214e-15)
(2633.74 -3.33977 -3.20588e-16)
(2633.74 -3.39048 -1.53125e-16)
(2633.75 -3.4431 7.59332e-15)
(2633.76 -3.49736 -6.04568e-15)
(2633.81 -3.49412 -7.563e-15)
(2636.5 -3.07981 -1.45778e-14)
(2633.36 -3.29923 8.17819e-15)
(2633.71 -3.33983 -4.3465e-16)
(2633.7 -3.39116 -1.67867e-14)
(2633.7 -3.44378 1.58044e-14)
(2633.71 -3.49807 3.25731e-15)
(2633.76 -3.49483 -6.03789e-15)
(2636.49 -3.20886 -7.95687e-15)
(2633.31 -3.29547 -3.24573e-15)
(2633.66 -3.34104 1.64166e-16)
(2633.65 -3.3923 4.93561e-17)
(2633.65 -3.44496 -5.52014e-15)
(2633.66 -3.49929 4.23882e-15)
(2633.71 -3.49605 1.10241e-14)
(2636.43 -3.06954 -4.8363e-15)
(2633.24 -3.14937 9.47758e-15)
(2633.59 -3.19371 -4.54084e-16)
(2633.58 -3.24319 1.12078e-14)
(2633.59 -3.29406 -9.93106e-15)
(2633.59 -3.34655 8.50339e-15)
(2633.65 -3.34348 -1.8292e-14)
(2636.34 -2.47522 -1.0387e-18)
(2633.14 -2.5389 9.32167e-15)
(2633.49 -2.57416 -4.48061e-16)
(2633.47 -2.61405 -1.5952e-17)
(2633.48 -2.65502 9.35186e-15)
(2633.48 -2.69731 1.42573e-15)
(2633.53 -2.69487 9.72855e-15)
(2636.26 -1.95996 5.64317e-17)
(2633.08 -2.28057 4.706e-17)
(2633.41 -2.17279 -3.21632e-17)
(2633.4 -2.21458 -5.92636e-17)
(2633.4 -2.24926 -1.02282e-17)
(2633.4 -2.28531 1.94522e-17)
(2633.46 -2.28327 -7.94374e-15)
(2636.2 -1.84506 1.75759e-14)
(2632.99 -1.96827 -1.00853e-15)
(2633.34 -1.99405 -1.87313e-14)
(2633.32 -2.02528 -6.92178e-15)
(2633.32 -2.05737 1.00997e-14)
(2633.37 -2.05558 -6.26053e-18)
(2636.21 -1.91028 -6.21812e-15)
(2633.05 -1.95314 3.60764e-16)
(2633.39 -1.98111 -9.32924e-15)
(2633.38 -2.01151 9.69149e-15)
(2633.38 -2.04279 1.6381e-14)
(2633.43 -2.04106 -8.80455e-16)
(2636.19 -2.07914 -8.38122e-15)
(2633.01 -2.20874 4.83426e-16)
(2633.35 -2.23488 -3.76203e-18)
(2633.34 -2.26966 1.6782e-14)
(2633.34 -2.30526 1.79193e-14)
(2633.39 -2.30329 1.13293e-15)
(2636.14 -0.164046 -3.58975e-16)
(2632.98 -2.79338 1.33296e-17)
(2633.32 -2.63542 -2.92096e-19)
(2633.31 -2.68317 1.07462e-14)
(2633.31 -2.72437 -5.47364e-16)
(2633.31 -2.76707 1.71369e-17)
(2633.36 -2.7648 -9.83549e-15)
)
;

boundaryField
{
    inlet
    {
        type            calculated;
        value           nonuniform List<vector> 0();
    }
    outlet2
    {
        type            calculated;
        value           uniform (0 0 0);
    }
    outlet1
    {
        type            calculated;
        value           uniform (0 0 0);
    }
    wall
    {
        type            calculated;
        value           uniform (0 0 0);
    }
    symmetryBottom
    {
        type            symmetry;
    }
    symmetryZ0
    {
        type            symmetry;
    }
    symmetryZ05
    {
        type            symmetry;
    }
    procBoundary0to1
    {
        type            processor;
        value           uniform (0 0 0);
    }
}


// ************************************************************************* //
