/*--------------------------------*- C++ -*----------------------------------*\
| =========                 |                                                 |
| \\      /  F ield         | OpenFOAM: The Open Source CFD Toolbox           |
|  \\    /   O peration     | Version:  2412                                  |
|   \\  /    A nd           | Website:  www.openfoam.com                      |
|    \\/     M anipulation  |                                                 |
\*---------------------------------------------------------------------------*/
FoamFile
{
    version     2.0;
    format      ascii;
    arch        "LSB;label=32;scalar=64";
    class       volScalarField;
    location    "2.4e-06";
    object      E_dof0;
}
// * * * * * * * * * * * * * * * * * * * * * * * * * * * * * * * * * * * * * //

dimensions      [0 0 0 0 0 0 0];

internalField   nonuniform List<scalar> 
84
(
99.1399
84.483
85.0459
85.033
85.0343
85.0353
85.0363
85.2559
101.365
86.4211
87.0246
87.0415
87.0736
87.1065
87.1404
87.3639
101.056
86.2918
86.8179
86.835
86.8638
86.8933
86.9238
87.147
100.871
86.048
86.6428
86.6542
86.6807
86.7078
86.9305
100.71
85.8448
86.4371
86.4452
86.4684
86.4921
86.7144
100.481
85.6446
86.2327
86.2377
86.2576
86.2778
86.4998
100.256
85.449
86.0328
86.0347
86.0514
86.0683
86.2899
99.9912
85.2948
85.8337
85.8345
85.848
85.8617
86.0829
99.8085
85.0919
85.6673
85.6638
85.6748
85.8957
99.5511
84.8328
85.4037
85.3962
85.403
85.6234
99.3144
84.6446
85.2105
85.1999
85.2036
85.4236
98.8696
84.4701
85.0083
84.9956
84.996
84.9962
85.2159
)
;

boundaryField
{
    inlet
    {
        type            calculated;
        value           nonuniform List<scalar> 0();
    }
    outlet2
    {
        type            calculated;
        value           uniform 99.4306;
    }
    outlet1
    {
        type            calculated;
        value           uniform 99.4306;
    }
    wall
    {
        type            calculated;
        value           uniform 99.4306;
    }
    symmetryBottom
    {
        type            symmetry;
    }
    symmetryZ0
    {
        type            symmetry;
    }
    symmetryZ05
    {
        type            symmetry;
    }
    procBoundary0to1
    {
        type            processor;
        value           uniform 99.4306;
    }
}


// ************************************************************************* //
