/*--------------------------------*- C++ -*----------------------------------*\
| =========                 |                                                 |
| \\      /  F ield         | OpenFOAM: The Open Source CFD Toolbox           |
|  \\    /   O peration     | Version:  2412                                  |
|   \\  /    A nd           | Website:  www.openfoam.com                      |
|    \\/     M anipulation  |                                                 |
\*---------------------------------------------------------------------------*/
FoamFile
{
    version     2.0;
    format      ascii;
    arch        "LSB;label=32;scalar=64";
    class       volVectorField;
    location    "2.4e-06";
    object      rhoU;
}
// * * * * * * * * * * * * * * * * * * * * * * * * * * * * * * * * * * * * * //

dimensions      [0 0 0 0 0 0 0];

internalField   nonuniform List<vector> 
84
(
(0.0738946 7.06628e-05 7.24866e-20)
(0.0630286 6.14448e-05 -7.37189e-20)
(0.0634436 6.27308e-05 -1.71401e-19)
(0.0634342 6.36549e-05 7.87022e-20)
(0.0634352 6.46165e-05 -2.82519e-21)
(0.0634359 6.56074e-05 9.44871e-21)
(0.0634368 6.66292e-05 1.58836e-19)
(0.0635996 6.67568e-05 3.52033e-20)
(0.0755408 -7.24383e-05 7.52771e-20)
(0.0644632 -6.35261e-05 -7.1261e-20)
(0.0649082 -6.48345e-05 -2.05057e-19)
(0.0649208 -6.58256e-05 1.01826e-20)
(0.0649446 -6.68555e-05 -3.63386e-19)
(0.064969 -6.7918e-05 5.20815e-20)
(0.0649942 -6.90148e-05 2.9691e-19)
(0.0651599 -6.9137e-05 6.56488e-20)
(0.0753115 -6.92497e-05 -3.38191e-19)
(0.064367 -6.58364e-05 5.05468e-20)
(0.064755 -6.45855e-05 1.04816e-19)
(0.0647677 -6.56866e-05 -5.19795e-21)
(0.0647891 -6.67092e-05 -2.603e-21)
(0.064811 -6.77672e-05 1.47862e-19)
(0.0648336 -6.88591e-05 -1.16806e-19)
(0.064999 -6.89812e-05 -1.52717e-19)
(0.0751744 -7.08014e-05 -3.36888e-19)
(0.0641865 -6.42613e-05 1.54374e-19)
(0.0646251 -6.55495e-05 -6.85543e-21)
(0.0646336 -6.65633e-05 -3.31217e-19)
(0.0646533 -6.76167e-05 3.08527e-19)
(0.0646733 -6.87038e-05 6.54978e-20)
(0.0648385 -6.88257e-05 -1.17193e-19)
(0.075055 -7.3092e-05 -1.83101e-19)
(0.0640358 -6.40718e-05 -6.45714e-20)
(0.0644725 -6.54157e-05 2.59034e-21)
(0.0644787 -6.64242e-05 7.59396e-22)
(0.0644958 -6.74733e-05 -1.0626e-19)
(0.0645134 -6.85559e-05 8.1473e-20)
(0.0646783 -6.86777e-05 2.20671e-19)
(0.0748838 -6.96181e-05 -1.13783e-19)
(0.0638861 -6.09731e-05 1.82982e-19)
(0.0643196 -6.22613e-05 -6.91652e-21)
(0.0643235 -6.32264e-05 2.19642e-19)
(0.0643382 -6.42304e-05 -1.92906e-19)
(0.0643532 -6.52668e-05 1.62622e-19)
(0.0645178 -6.53835e-05 -3.54358e-19)
(0.0747117 -5.60284e-05 -1.96536e-23)
(0.0637361 -4.90437e-05 1.80209e-19)
(0.0641663 -5.00737e-05 -6.83383e-21)
(0.0641678 -5.0848e-05 -4.07877e-22)
(0.0641801 -5.16532e-05 1.84086e-19)
(0.0641925 -5.24843e-05 2.93104e-20)
(0.0643568 -5.2579e-05 1.95357e-19)
(0.0745094 -4.47937e-05 9.6203e-22)
(0.0636164 -4.33082e-05 6.44782e-22)
(0.0640135 -4.21703e-05 -5.94651e-22)
(0.064014 -4.29153e-05 -9.16673e-22)
(0.0640238 -4.35944e-05 -1.28187e-22)
(0.0640337 -4.42976e-05 2.46082e-22)
(0.0641977 -4.43781e-05 -1.51128e-19)
(0.07435 -4.19387e-05 4.09143e-19)
(0.0634438 -3.78826e-05 -1.48608e-20)
(0.0638673 -3.86609e-05 -3.66685e-19)
(0.0638643 -3.92631e-05 -1.37778e-19)
(0.0638718 -3.98894e-05 1.92446e-19)
(0.0640355 -3.99629e-05 -1.09609e-22)
(0.0742139 -4.31536e-05 -1.43604e-19)
(0.0633003 -3.76547e-05 5.37896e-21)
(0.0637216 -3.84543e-05 -1.80875e-19)
(0.0637163 -3.90427e-05 1.89236e-19)
(0.0637216 -3.96551e-05 3.27141e-19)
(0.063885 -3.97289e-05 -1.17471e-20)
(0.0740255 -4.71247e-05 -1.909e-19)
(0.0631496 -4.23671e-05 7.16129e-21)
(0.0635669 -4.32035e-05 2.37299e-25)
(0.0635592 -4.38689e-05 3.28326e-19)
(0.063562 -4.45598e-05 3.5226e-19)
(0.0637251 -4.46427e-05 2.64515e-20)
(0.0736914 -2.98786e-06 -6.45464e-21)
(0.0630178 -5.27341e-05 1.55216e-22)
(0.0634145 -5.08906e-05 -2.67792e-24)
(0.0634052 -5.17482e-05 2.14649e-19)
(0.0634055 -5.25463e-05 -8.34634e-21)
(0.0634057 -5.33713e-05 2.03879e-22)
(0.0635686 -5.34721e-05 -1.90141e-19)
)
;

boundaryField
{
    inlet
    {
        type            calculated;
        value           nonuniform List<vector> 0();
    }
    outlet2
    {
        type            calculated;
        value           uniform (0 0 0);
    }
    outlet1
    {
        type            calculated;
        value           uniform (0 0 0);
    }
    wall
    {
        type            calculated;
        value           uniform (0 0 0);
    }
    symmetryBottom
    {
        type            symmetry;
    }
    symmetryZ0
    {
        type            symmetry;
    }
    symmetryZ05
    {
        type            symmetry;
    }
    procBoundary0to1
    {
        type            processor;
        value           uniform (0 0 0);
    }
}


// ************************************************************************* //
