/*--------------------------------*- C++ -*----------------------------------*\
| =========                 |                                                 |
| \\      /  F ield         | OpenFOAM: The Open Source CFD Toolbox           |
|  \\    /   O peration     | Version:  2412                                  |
|   \\  /    A nd           | Website:  www.openfoam.com                      |
|    \\/     M anipulation  |                                                 |
\*---------------------------------------------------------------------------*/
FoamFile
{
    version     2.0;
    format      ascii;
    arch        "LSB;label=32;scalar=64";
    class       volScalarField;
    location    "1e-05";
    object      E_dof0;
}
// * * * * * * * * * * * * * * * * * * * * * * * * * * * * * * * * * * * * * //

dimensions      [0 0 0 0 0 0 0];

internalField   nonuniform List<scalar> 
84
(
121.632
2.92217
14.3385
121.679
3.02212
13.5652
121.709
3.01264
13.6638
121.71
3.0004
13.7645
121.711
2.98818
13.8652
121.713
2.97602
13.9653
121.714
2.96392
14.0647
121.715
2.95187
14.1636
121.716
2.93987
14.2618
121.718
2.92793
14.3594
121.719
2.916
14.4564
121.721
2.90397
14.5528
56.6626
52.6462
49.4347
61.0551
56.5763
53.1136
60.5584
56.13
52.7632
59.9928
55.425
56.413
46.4441
59.424
54.9428
55.4446
51.7095
58.8611
54.4423
54.9212
51.3099
58.3034
53.946
54.4106
50.8372
57.7507
53.4542
53.9035
50.3965
57.203
52.9724
53.2326
53.6212
47.3138
56.6603
52.4889
52.7489
52.9156
49.4334
56.1226
52.0101
52.2596
52.4095
49.0472
55.5902
51.5312
51.9242
48.6137
)
;

boundaryField
{
    inlet
    {
        type            calculated;
        value           uniform 99.4306;
    }
    outlet2
    {
        type            calculated;
        value           uniform 99.4306;
    }
    outlet1
    {
        type            calculated;
        value           nonuniform List<scalar> 0();
    }
    wall
    {
        type            calculated;
        value           uniform 99.4306;
    }
    symmetryBottom
    {
        type            symmetry;
    }
    symmetryZ0
    {
        type            symmetry;
    }
    symmetryZ05
    {
        type            symmetry;
    }
    procBoundary1to0
    {
        type            processor;
        value           uniform 99.4306;
    }
}


// ************************************************************************* //
