/*--------------------------------*- C++ -*----------------------------------*\
| =========                 |                                                 |
| \\      /  F ield         | OpenFOAM: The Open Source CFD Toolbox           |
|  \\    /   O peration     | Version:  2412                                  |
|   \\  /    A nd           | Website:  www.openfoam.com                      |
|    \\/     M anipulation  |                                                 |
\*---------------------------------------------------------------------------*/
FoamFile
{
    version     2.0;
    format      ascii;
    arch        "LSB;label=32;scalar=64";
    class       volScalarField;
    location    "8.2e-06";
    object      rho;
}
// * * * * * * * * * * * * * * * * * * * * * * * * * * * * * * * * * * * * * //

dimensions      [0 0 0 0 0 0 0];

internalField   nonuniform List<scalar> 
84
(
2.68888e-05
1.52015e-05
1.67606e-05
1.6625e-05
1.66359e-05
1.66374e-05
1.66395e-05
1.67991e-05
2.89172e-05
1.63794e-05
1.80709e-05
1.79456e-05
1.79778e-05
1.80006e-05
1.80247e-05
1.81943e-05
2.84762e-05
1.64777e-05
1.78915e-05
1.78061e-05
1.7832e-05
1.78526e-05
1.78742e-05
1.80427e-05
2.83288e-05
1.61533e-05
1.78053e-05
1.76783e-05
1.77063e-05
1.77249e-05
1.78924e-05
2.82945e-05
1.60089e-05
1.76641e-05
1.75347e-05
1.75604e-05
1.75765e-05
1.7743e-05
2.80751e-05
1.58813e-05
1.75218e-05
1.73912e-05
1.74144e-05
1.74281e-05
1.75935e-05
2.78542e-05
1.5756e-05
1.73798e-05
1.72483e-05
1.7269e-05
1.72802e-05
1.74446e-05
2.75236e-05
1.5758e-05
1.72211e-05
1.71113e-05
1.71276e-05
1.71366e-05
1.73e-05
2.73225e-05
1.55138e-05
1.7099e-05
1.69658e-05
1.69817e-05
1.71434e-05
2.72377e-05
1.5395e-05
1.69796e-05
1.68449e-05
1.68591e-05
1.702e-05
2.69577e-05
1.52752e-05
1.6833e-05
1.66981e-05
1.67097e-05
1.68695e-05
2.65585e-05
1.52142e-05
1.66901e-05
1.6564e-05
1.65725e-05
1.65726e-05
1.67319e-05
)
;

boundaryField
{
    inlet
    {
        type            calculated;
        value           nonuniform List<scalar> 0();
    }
    outlet2
    {
        type            calculated;
        value           uniform 0;
    }
    outlet1
    {
        type            calculated;
        value           uniform 0;
    }
    wall
    {
        type            calculated;
        value           uniform 0;
    }
    symmetryBottom
    {
        type            symmetry;
    }
    symmetryZ0
    {
        type            symmetry;
    }
    symmetryZ05
    {
        type            symmetry;
    }
    procBoundary0to1
    {
        type            processor;
        value           uniform 0;
    }
}


// ************************************************************************* //
