/*--------------------------------*- C++ -*----------------------------------*\
| =========                 |                                                 |
| \\      /  F ield         | OpenFOAM: The Open Source CFD Toolbox           |
|  \\    /   O peration     | Version:  2412                                  |
|   \\  /    A nd           | Website:  www.openfoam.com                      |
|    \\/     M anipulation  |                                                 |
\*---------------------------------------------------------------------------*/
FoamFile
{
    version     2.0;
    format      ascii;
    arch        "LSB;label=32;scalar=64";
    class       volVectorField;
    location    "8.2e-06";
    object      rhoU;
}
// * * * * * * * * * * * * * * * * * * * * * * * * * * * * * * * * * * * * * //

dimensions      [0 0 0 0 0 0 0];

internalField   nonuniform List<vector> 
84
(
(0.0708091 0.000222466 2.3499e-19)
(0.0398745 0.000128139 -2.10766e-19)
(0.0440257 0.000143081 -3.2188e-19)
(0.0436618 0.000143957 2.10632e-19)
(0.0436907 0.000146127 -4.36912e-20)
(0.0436943 0.000148278 3.14807e-20)
(0.0436993 0.000150497 3.09674e-19)
(0.0441215 0.00015162 2.40629e-20)
(0.0762293 -0.000248712 2.22703e-19)
(0.0430124 -0.000146542 -2.1077e-19)
(0.0475199 -0.00016226 -4.33501e-19)
(0.0471832 -0.000163796 7.2213e-20)
(0.0472689 -0.000166575 -8.13113e-19)
(0.0473292 -0.000169375 2.19495e-19)
(0.0473929 -0.000172274 6.53228e-19)
(0.0478419 -0.000173472 1.03927e-19)
(0.0750576 -0.000216397 -8.8159e-19)
(0.0432774 -0.000174575 1.97713e-19)
(0.0470439 -0.000156219 2.19393e-19)
(0.0468144 -0.000162981 -3.99672e-20)
(0.0468832 -0.000165228 -1.42044e-20)
(0.0469377 -0.000168018 3.11182e-19)
(0.0469947 -0.00017087 -2.71545e-19)
(0.0474409 -0.000172061 -2.911e-19)
(0.0746669 -0.000226004 -8.30651e-19)
(0.0424155 -0.000148013 3.86892e-19)
(0.0468171 -0.000162335 -5.74232e-20)
(0.0464762 -0.000163882 -7.14597e-19)
(0.0465507 -0.000166673 7.40761e-19)
(0.0465998 -0.000169479 1.0288e-19)
(0.0470433 -0.000170663 -2.6999e-19)
(0.0745781 -0.000247814 -4.68845e-19)
(0.0420334 -0.000144825 -1.09693e-19)
(0.0464437 -0.000161276 1.87649e-20)
(0.0460965 -0.000162646 5.67775e-21)
(0.0461647 -0.000165404 -2.36363e-19)
(0.0462073 -0.000168168 2.14286e-19)
(0.046648 -0.000169346 4.64153e-19)
(0.0739955 -0.000239468 -3.29934e-19)
(0.0416958 -0.000139592 4.00094e-19)
(0.0460666 -0.00015563 -5.98643e-20)
(0.0457163 -0.000156992 4.69257e-19)
(0.045778 -0.000159709 -4.46285e-19)
(0.0458141 -0.000162435 3.72717e-19)
(0.046252 -0.000163574 -7.74182e-19)
(0.0734057 -0.000190912 -1.44933e-22)
(0.0413609 -0.000111808 3.53979e-19)
(0.0456872 -0.000124187 -5.58705e-20)
(0.0453345 -0.000125321 3.74649e-21)
(0.0453896 -0.000127463 3.83934e-19)
(0.0454192 -0.000129616 3.29062e-20)
(0.0458542 -0.000130529 3.77994e-19)
(0.0725274 -0.000136103 1.03352e-20)
(0.0413656 -0.000118113 8.51561e-21)
(0.0452651 -0.000101886 -2.9966e-21)
(0.0449701 -0.000107042 -7.52982e-21)
(0.0450134 -0.000108497 -1.29557e-21)
(0.0450372 -0.00011038 3.85949e-21)
(0.0454695 -0.000111152 -2.87206e-19)
(0.0719894 -0.00013057 1.21623e-18)
(0.0407132 -8.52224e-05 -1.55039e-19)
(0.0449375 -9.36367e-05 -7.95465e-19)
(0.0445798 -9.44876e-05 -2.04206e-19)
(0.0446221 -9.60804e-05 4.53375e-19)
(0.0450502 -9.6763e-05 -7.77786e-20)
(0.0717727 -0.000138306 -4.18858e-19)
(0.0404132 -8.02648e-05 5.4944e-20)
(0.0446335 -8.94654e-05 -3.65082e-19)
(0.0442725 -9.01105e-05 4.20261e-19)
(0.0443106 -9.15408e-05 6.62767e-19)
(0.0447362 -9.22064e-05 -9.75659e-20)
(0.0710327 -0.000142639 -4.93601e-19)
(0.0400953 -9.37979e-05 7.19754e-20)
(0.0442448 -0.000101503 -5.16249e-21)
(0.0438833 -0.000102532 6.95781e-19)
(0.0439145 -0.000104175 6.87861e-19)
(0.0443373 -0.000104927 3.53378e-21)
(0.069977 -2.70139e-05 -5.05079e-20)
(0.0399343 -0.00013437 4.91177e-21)
(0.0438677 -0.00011599 -3.36203e-22)
(0.0435293 -0.000120177 4.36925e-19)
(0.0435523 -0.000121808 -6.6524e-20)
(0.0435524 -0.000123709 6.28648e-21)
(0.043974 -0.000124612 -3.51813e-19)
)
;

boundaryField
{
    inlet
    {
        type            calculated;
        value           nonuniform List<vector> 0();
    }
    outlet2
    {
        type            calculated;
        value           uniform (0 0 0);
    }
    outlet1
    {
        type            calculated;
        value           uniform (0 0 0);
    }
    wall
    {
        type            calculated;
        value           uniform (0 0 0);
    }
    symmetryBottom
    {
        type            symmetry;
    }
    symmetryZ0
    {
        type            symmetry;
    }
    symmetryZ05
    {
        type            symmetry;
    }
    procBoundary0to1
    {
        type            processor;
        value           uniform (0 0 0);
    }
}


// ************************************************************************* //
