/*--------------------------------*- C++ -*----------------------------------*\
| =========                 |                                                 |
| \\      /  F ield         | OpenFOAM: The Open Source CFD Toolbox           |
|  \\    /   O peration     | Version:  2412                                  |
|   \\  /    A nd           | Website:  www.openfoam.com                      |
|    \\/     M anipulation  |                                                 |
\*---------------------------------------------------------------------------*/
FoamFile
{
    version     2.0;
    format      ascii;
    arch        "LSB;label=32;scalar=64";
    class       volScalarField;
    location    "1e-07";
    object      E_dof0;
}
// * * * * * * * * * * * * * * * * * * * * * * * * * * * * * * * * * * * * * //

dimensions      [0 0 0 0 0 0 0];

internalField   nonuniform List<scalar> 
84
(
99.4306
97.8393
97.8393
99.4306
97.8393
97.8393
99.4306
97.8393
97.8393
99.4306
97.8393
97.8393
99.4306
97.8393
97.8393
99.4306
97.8393
97.8393
99.4306
97.8393
97.8393
99.4306
97.8393
97.8393
99.4306
97.8393
97.8393
99.4306
97.8393
97.8393
99.4306
97.8393
97.8393
99.4306
97.8393
97.8393
98.783
98.7831
98.7921
98.8719
98.8732
98.8823
98.8629
98.8641
98.8732
98.854
98.855
98.856
98.7823
98.845
98.8459
98.8468
98.856
98.8361
98.8369
98.8377
98.8469
98.8274
98.828
98.8287
98.8379
98.8187
98.8192
98.8198
98.829
98.811
98.8114
98.8119
98.8123
98.7823
98.7992
98.7995
98.7997
98.8
98.8093
98.791
98.7911
98.7912
98.7913
98.8007
98.7822
98.7822
98.7822
98.7914
)
;

boundaryField
{
    inlet
    {
        type            calculated;
        value           uniform 99.4306;
    }
    outlet2
    {
        type            calculated;
        value           uniform 99.4306;
    }
    outlet1
    {
        type            calculated;
        value           nonuniform List<scalar> 0();
    }
    wall
    {
        type            calculated;
        value           uniform 99.4306;
    }
    symmetryBottom
    {
        type            symmetry;
    }
    symmetryZ0
    {
        type            symmetry;
    }
    symmetryZ05
    {
        type            symmetry;
    }
    procBoundary1to0
    {
        type            processor;
        value           uniform 99.4306;
    }
}


// ************************************************************************* //
