/*--------------------------------*- C++ -*----------------------------------*\
| =========                 |                                                 |
| \\      /  F ield         | OpenFOAM: The Open Source CFD Toolbox           |
|  \\    /   O peration     | Version:  2412                                  |
|   \\  /    A nd           | Website:  www.openfoam.com                      |
|    \\/     M anipulation  |                                                 |
\*---------------------------------------------------------------------------*/
FoamFile
{
    version     2.0;
    format      ascii;
    arch        "LSB;label=32;scalar=64";
    class       volScalarField;
    location    "1e-07";
    object      T;
}
// * * * * * * * * * * * * * * * * * * * * * * * * * * * * * * * * * * * * * //

dimensions      [0 0 0 0 0 0 0];

internalField   nonuniform List<scalar> 
84
(
200.001
200
200
200.001
200
200
200.001
200
200
200.001
200
200
200.001
200
200
200.001
200
200
200.001
200
200
200.001
200
200
200.001
200
200
200.001
200
200
200.001
200
200
200.001
200
200
200.059
200.06
200.06
200.001
200.001
200.001
200.001
200
200
200
200
200
200.001
200
200
200
200
200.012
200.012
200.013
200.013
200.053
200.054
200.054
200.054
200.091
200.092
200.094
200.094
200.236
200.239
200.243
200.246
200.001
199.904
199.903
199.901
199.9
199.9
199.978
199.977
199.977
199.977
199.977
199.991
199.991
199.991
199.991
)
;

boundaryField
{
    inlet
    {
        type            calculated;
        value           uniform 0;
    }
    outlet2
    {
        type            calculated;
        value           uniform 0;
    }
    outlet1
    {
        type            calculated;
        value           nonuniform List<scalar> 0();
    }
    wall
    {
        type            calculated;
        value           uniform 0;
    }
    symmetryBottom
    {
        type            symmetry;
    }
    symmetryZ0
    {
        type            symmetry;
    }
    symmetryZ05
    {
        type            symmetry;
    }
    procBoundary1to0
    {
        type            processor;
        value           uniform 0;
    }
}


// ************************************************************************* //
