/*--------------------------------*- C++ -*----------------------------------*\
| =========                 |                                                 |
| \\      /  F ield         | OpenFOAM: The Open Source CFD Toolbox           |
|  \\    /   O peration     | Version:  2412                                  |
|   \\  /    A nd           | Website:  www.openfoam.com                      |
|    \\/     M anipulation  |                                                 |
\*---------------------------------------------------------------------------*/
FoamFile
{
    version     2.0;
    format      ascii;
    arch        "LSB;label=32;scalar=64";
    class       volScalarField;
    location    "9.6e-06";
    object      rho;
}
// * * * * * * * * * * * * * * * * * * * * * * * * * * * * * * * * * * * * * //

dimensions      [0 0 0 0 0 0 0];

internalField   nonuniform List<scalar> 
84
(
2.88814e-05
1.43659e-05
1.54714e-05
1.54201e-05
1.54273e-05
1.54333e-05
1.54236e-05
1.56192e-05
3.09757e-05
1.54323e-05
1.66333e-05
1.65963e-05
1.66224e-05
1.66476e-05
1.66588e-05
1.68657e-05
3.05443e-05
1.54677e-05
1.64871e-05
1.64648e-05
1.64881e-05
1.65115e-05
1.65206e-05
1.67262e-05
3.01935e-05
1.52117e-05
1.63688e-05
1.633e-05
1.6353e-05
1.63592e-05
1.65633e-05
3.02272e-05
1.50485e-05
1.62172e-05
1.61752e-05
1.61957e-05
1.61991e-05
1.64018e-05
2.99592e-05
1.49095e-05
1.60659e-05
1.60219e-05
1.60399e-05
1.60405e-05
1.62418e-05
2.96889e-05
1.47728e-05
1.59159e-05
1.58701e-05
1.58855e-05
1.58835e-05
1.60834e-05
2.93349e-05
1.47065e-05
1.57605e-05
1.57201e-05
1.57326e-05
1.5728e-05
1.59265e-05
2.90343e-05
1.45178e-05
1.56271e-05
1.55791e-05
1.55741e-05
1.57711e-05
2.8906e-05
1.43716e-05
1.54795e-05
1.54291e-05
1.54216e-05
1.56172e-05
2.86243e-05
1.42389e-05
1.53327e-05
1.52806e-05
1.52706e-05
1.54648e-05
2.80963e-05
1.41438e-05
1.51839e-05
1.51323e-05
1.51357e-05
1.51211e-05
1.53139e-05
)
;

boundaryField
{
    inlet
    {
        type            calculated;
        value           nonuniform List<scalar> 0();
    }
    outlet2
    {
        type            calculated;
        value           uniform 0;
    }
    outlet1
    {
        type            calculated;
        value           uniform 0;
    }
    wall
    {
        type            calculated;
        value           uniform 0;
    }
    symmetryBottom
    {
        type            symmetry;
    }
    symmetryZ0
    {
        type            symmetry;
    }
    symmetryZ05
    {
        type            symmetry;
    }
    procBoundary0to1
    {
        type            processor;
        value           uniform 0;
    }
}


// ************************************************************************* //
