/*--------------------------------*- C++ -*----------------------------------*\
| =========                 |                                                 |
| \\      /  F ield         | OpenFOAM: The Open Source CFD Toolbox           |
|  \\    /   O peration     | Version:  2412                                  |
|   \\  /    A nd           | Website:  www.openfoam.com                      |
|    \\/     M anipulation  |                                                 |
\*---------------------------------------------------------------------------*/
FoamFile
{
    version     2.0;
    format      ascii;
    arch        "LSB;label=32;scalar=64";
    class       volVectorField;
    location    "9.6e-06";
    object      rhoU_dof0;
}
// * * * * * * * * * * * * * * * * * * * * * * * * * * * * * * * * * * * * * //

dimensions      [0 0 0 0 0 0 0];

internalField   nonuniform List<vector> 
84
(
(0.0761429 -5.48019e-06 3.38035e-19)
(0.0376907 -3.20326e-06 -1.80077e-19)
(0.0406357 -3.44855e-06 -5.06623e-19)
(0.040498 -3.54588e-06 2.53473e-19)
(0.0405171 -3.65401e-06 -2.72347e-20)
(0.0405327 -3.76664e-06 -1.8753e-20)
(0.0405068 -3.89426e-06 4.54858e-19)
(0.0410244 -3.91043e-06 3.95478e-20)
(0.0817101 -0.000307207 3.31281e-19)
(0.040514 -0.000157865 -1.73465e-19)
(0.0437149 -0.000171756 -6.32494e-19)
(0.0436147 -0.000173973 1.4735e-19)
(0.0436838 -0.000176857 -1.10727e-18)
(0.0437506 -0.000179808 1.4062e-19)
(0.0437797 -0.000182998 8.86932e-19)
(0.0443276 -0.000184637 1.5792e-19)
(0.0805636 -0.000283894 -1.49333e-18)
(0.0406114 -0.000179846 1.71117e-19)
(0.043328 -0.000171748 3.05151e-19)
(0.0432673 -0.000176087 -2.38074e-20)
(0.043329 -0.000178921 -6.38098e-20)
(0.0433908 -0.000181943 4.82563e-19)
(0.0434145 -0.000185209 -3.26659e-19)
(0.0439589 -0.00018686 -3.96523e-19)
(0.0796311 -0.000272749 -1.47685e-18)
(0.0399325 -0.000163526 5.17554e-19)
(0.0430155 -0.000174851 3.70753e-20)
(0.0429108 -0.00017729 -1.03916e-18)
(0.0429718 -0.000180274 9.43781e-19)
(0.0429878 -0.00018348 1.60741e-19)
(0.0435284 -0.000185122 -3.10897e-19)
(0.0797244 -0.000309671 -7.86316e-19)
(0.0395005 -0.000159084 -1.43778e-19)
(0.0426149 -0.000173395 1.2473e-20)
(0.0425017 -0.000175631 2.05001e-20)
(0.0425559 -0.000178567 -3.29498e-19)
(0.0425646 -0.000181713 2.02165e-19)
(0.0431013 -0.000183344 5.93604e-19)
(0.0790133 -0.000307668 -5.14987e-19)
(0.0391335 -0.000157586 5.48166e-19)
(0.0422148 -0.000171804 -9.614e-20)
(0.0420965 -0.000173993 6.85487e-19)
(0.042144 -0.000176876 -6.31753e-19)
(0.0421455 -0.000179962 5.61648e-19)
(0.0426783 -0.000181584 -9.59005e-19)
(0.0782962 -0.000304778 -4.83861e-20)
(0.0387723 -0.000156292 5.09875e-19)
(0.0418183 -0.000170212 -4.02321e-20)
(0.0416952 -0.00017237 -3.65425e-20)
(0.0417361 -0.0001752 5.35208e-19)
(0.0417304 -0.000178228 2.88003e-20)
(0.0422595 -0.00017984 4.95321e-19)
(0.0773563 -0.000278903 7.36973e-21)
(0.0385991 -0.00017427 8.64411e-21)
(0.0414073 -0.000166759 -1.84693e-21)
(0.0412987 -0.000170868 -6.97346e-21)
(0.041332 -0.000173536 1.90955e-21)
(0.0413194 -0.000176511 3.35286e-20)
(0.0418447 -0.000178112 -4.01587e-19)
(0.0765579 -0.000265292 1.77461e-18)
(0.0380994 -0.000158634 -4.25425e-20)
(0.0410549 -0.000169602 -1.00776e-18)
(0.040926 -0.00017188 -3.69653e-19)
(0.0409126 -0.00017481 5.7376e-19)
(0.041434 -0.000176401 -3.63565e-20)
(0.0762194 -0.000301078 -6.09839e-19)
(0.0377131 -0.000154308 8.65371e-20)
(0.0406649 -0.000168164 -5.66339e-19)
(0.0405297 -0.000170245 4.99297e-19)
(0.0405096 -0.000173125 9.20552e-19)
(0.0410272 -0.000174707 -8.71885e-20)
(0.0754719 -0.00027999 -8.17434e-19)
(0.0373627 -0.000154695 6.05561e-20)
(0.0402768 -0.000166493 -7.42552e-20)
(0.0401372 -0.000168636 8.60251e-19)
(0.0401105 -0.000171456 9.80898e-19)
(0.0406244 -0.000173028 1.69012e-20)
(0.0740727 -1.73582e-05 -4.30474e-20)
(0.0371125 -0.00018702 3.64827e-21)
(0.0398835 -0.000159646 -4.84036e-20)
(0.0397453 -0.000164548 6.14625e-19)
(0.0397545 -0.000166982 -5.11823e-20)
(0.0397154 -0.000169736 4.43526e-20)
(0.0402258 -0.000171304 -4.98194e-19)
)
;

boundaryField
{
    inlet
    {
        type            calculated;
        value           nonuniform List<vector> 0();
    }
    outlet2
    {
        type            calculated;
        value           uniform (0.0741049 0 0);
    }
    outlet1
    {
        type            calculated;
        value           uniform (0.0741049 0 0);
    }
    wall
    {
        type            calculated;
        value           uniform (0.0741049 0 0);
    }
    symmetryBottom
    {
        type            symmetry;
    }
    symmetryZ0
    {
        type            symmetry;
    }
    symmetryZ05
    {
        type            symmetry;
    }
    procBoundary0to1
    {
        type            processor;
        value           uniform (0.0741049 0 0);
    }
}


// ************************************************************************* //
