/*--------------------------------*- C++ -*----------------------------------*\
| =========                 |                                                 |
| \\      /  F ield         | OpenFOAM: The Open Source CFD Toolbox           |
|  \\    /   O peration     | Version:  2412                                  |
|   \\  /    A nd           | Website:  www.openfoam.com                      |
|    \\/     M anipulation  |                                                 |
\*---------------------------------------------------------------------------*/
FoamFile
{
    version     2.0;
    format      ascii;
    arch        "LSB;label=32;scalar=64";
    class       volScalarField;
    location    "9.6e-06";
    object      T;
}
// * * * * * * * * * * * * * * * * * * * * * * * * * * * * * * * * * * * * * //

dimensions      [0 0 0 0 0 0 0];

internalField   nonuniform List<scalar> 
84
(
203.612
203.583
203.757
203.802
203.862
203.922
203.99
203.979
199.999
199.89
200.011
200
200
200.001
200
200.002
199.969
199.888
200.005
199.995
199.995
199.995
199.994
199.997
200.006
199.886
200.007
199.995
199.996
199.994
199.997
199.993
199.883
200.007
199.995
199.996
199.994
199.997
199.997
199.882
200.007
199.995
199.996
199.994
199.997
199.995
199.885
200.006
199.995
199.996
199.994
199.997
199.97
199.876
200.007
199.995
199.995
199.994
199.997
200.009
199.881
200.007
199.995
199.994
199.997
199.99
199.882
200.006
199.995
199.994
199.997
200.003
199.88
200.006
199.994
199.994
199.997
199.971
199.85
200.009
199.995
199.996
199.995
199.998
)
;

boundaryField
{
    inlet
    {
        type            calculated;
        value           nonuniform List<scalar> 0();
    }
    outlet2
    {
        type            calculated;
        value           uniform 0;
    }
    outlet1
    {
        type            calculated;
        value           uniform 0;
    }
    wall
    {
        type            calculated;
        value           uniform 0;
    }
    symmetryBottom
    {
        type            symmetry;
    }
    symmetryZ0
    {
        type            symmetry;
    }
    symmetryZ05
    {
        type            symmetry;
    }
    procBoundary0to1
    {
        type            processor;
        value           uniform 0;
    }
}


// ************************************************************************* //
