/*--------------------------------*- C++ -*----------------------------------*\
| =========                 |                                                 |
| \\      /  F ield         | OpenFOAM: The Open Source CFD Toolbox           |
|  \\    /   O peration     | Version:  2412                                  |
|   \\  /    A nd           | Website:  www.openfoam.com                      |
|    \\/     M anipulation  |                                                 |
\*---------------------------------------------------------------------------*/
FoamFile
{
    version     2.0;
    format      ascii;
    arch        "LSB;label=32;scalar=64";
    class       volScalarField;
    location    "3.6e-06";
    object      E;
}
// * * * * * * * * * * * * * * * * * * * * * * * * * * * * * * * * * * * * * //

dimensions      [0 0 0 0 0 0 0];

internalField   nonuniform List<scalar> 
84
(
98.6247
77.4638
78.6998
78.6546
78.6577
78.6595
78.6615
78.9724
101.95
80.1353
81.4508
81.446
81.4922
81.5385
81.5863
81.9057
101.427
80.0196
81.1538
81.1568
81.198
81.2395
81.2825
81.601
101.159
79.6195
80.9157
80.9034
80.9417
80.9797
81.2974
100.964
79.334
80.6277
80.6109
80.6445
80.6777
80.9945
100.619
79.0561
80.3414
80.3202
80.3491
80.3775
80.6935
100.281
78.7847
80.0613
80.036
80.0603
80.0841
80.3992
99.854
78.6074
79.7798
79.7571
79.7767
79.7959
80.1102
99.5801
78.2903
79.5491
79.5162
79.5325
79.846
99.2277
77.9364
79.1881
79.1499
79.1605
79.4729
98.8566
77.6766
78.9167
78.8744
78.8805
79.1921
98.1994
77.4551
78.6352
78.5919
78.5935
78.5939
78.9047
)
;

boundaryField
{
    inlet
    {
        type            calculated;
        value           nonuniform List<scalar> 0();
    }
    outlet2
    {
        type            calculated;
        value           uniform 0;
    }
    outlet1
    {
        type            calculated;
        value           uniform 0;
    }
    wall
    {
        type            calculated;
        value           uniform 0;
    }
    symmetryBottom
    {
        type            symmetry;
    }
    symmetryZ0
    {
        type            symmetry;
    }
    symmetryZ05
    {
        type            symmetry;
    }
    procBoundary0to1
    {
        type            processor;
        value           uniform 0;
    }
}


// ************************************************************************* //
