/*--------------------------------*- C++ -*----------------------------------*\
| =========                 |                                                 |
| \\      /  F ield         | OpenFOAM: The Open Source CFD Toolbox           |
|  \\    /   O peration     | Version:  2412                                  |
|   \\  /    A nd           | Website:  www.openfoam.com                      |
|    \\/     M anipulation  |                                                 |
\*---------------------------------------------------------------------------*/
FoamFile
{
    version     2.0;
    format      ascii;
    arch        "LSB;label=32;scalar=64";
    class       volScalarField;
    location    "3.6e-06";
    object      rho_dof0;
}
// * * * * * * * * * * * * * * * * * * * * * * * * * * * * * * * * * * * * * //

dimensions      [0 0 0 0 0 0 0];

internalField   nonuniform List<scalar> 
84
(
2.78958e-05
2.19743e-05
2.23163e-05
2.2304e-05
2.2305e-05
2.23057e-05
2.23063e-05
2.23934e-05
2.88161e-05
2.27152e-05
2.30791e-05
2.3078e-05
2.3091e-05
2.31039e-05
2.31173e-05
2.32067e-05
2.86705e-05
2.26822e-05
2.2996e-05
2.2997e-05
2.30086e-05
2.30202e-05
2.30322e-05
2.31214e-05
2.85954e-05
2.25707e-05
2.29292e-05
2.29261e-05
2.29368e-05
2.29474e-05
2.30364e-05
2.85405e-05
2.24907e-05
2.28486e-05
2.28442e-05
2.28536e-05
2.28629e-05
2.29515e-05
2.84435e-05
2.24125e-05
2.27679e-05
2.27623e-05
2.27704e-05
2.27783e-05
2.28668e-05
2.83465e-05
2.23345e-05
2.26875e-05
2.26806e-05
2.26874e-05
2.2694e-05
2.27822e-05
2.82241e-05
2.22822e-05
2.26062e-05
2.26e-05
2.26054e-05
2.26107e-05
2.26987e-05
2.81342e-05
2.21821e-05
2.25296e-05
2.25205e-05
2.25247e-05
2.26125e-05
2.8066e-05
2.21073e-05
2.24538e-05
2.24435e-05
2.24466e-05
2.25341e-05
2.79546e-05
2.20286e-05
2.23717e-05
2.23602e-05
2.23619e-05
2.24492e-05
2.7768e-05
2.19653e-05
2.22914e-05
2.22796e-05
2.228e-05
2.22802e-05
2.23672e-05
)
;

boundaryField
{
    inlet
    {
        type            calculated;
        value           nonuniform List<scalar> 0();
    }
    outlet2
    {
        type            calculated;
        value           uniform 2.81085e-05;
    }
    outlet1
    {
        type            calculated;
        value           uniform 2.81085e-05;
    }
    wall
    {
        type            calculated;
        value           uniform 2.81085e-05;
    }
    symmetryBottom
    {
        type            symmetry;
    }
    symmetryZ0
    {
        type            symmetry;
    }
    symmetryZ05
    {
        type            symmetry;
    }
    procBoundary0to1
    {
        type            processor;
        value           uniform 2.81085e-05;
    }
}


// ************************************************************************* //
