/*--------------------------------*- C++ -*----------------------------------*\
| =========                 |                                                 |
| \\      /  F ield         | OpenFOAM: The Open Source CFD Toolbox           |
|  \\    /   O peration     | Version:  2412                                  |
|   \\  /    A nd           | Website:  www.openfoam.com                      |
|    \\/     M anipulation  |                                                 |
\*---------------------------------------------------------------------------*/
FoamFile
{
    version     2.0;
    format      ascii;
    arch        "LSB;label=32;scalar=64";
    class       volVectorField;
    location    "3.6e-06";
    object      rhoU_dof0;
}
// * * * * * * * * * * * * * * * * * * * * * * * * * * * * * * * * * * * * * //

dimensions      [0 0 0 0 0 0 0];

internalField   nonuniform List<vector> 
84
(
(0.0735165 0.000104624 1.05649e-19)
(0.0578252 8.39456e-05 -1.06563e-19)
(0.0587366 8.64481e-05 -2.28756e-19)
(0.0587036 8.76765e-05 1.14457e-19)
(0.0587059 8.8992e-05 -8.06504e-21)
(0.0587073 9.03461e-05 1.38461e-20)
(0.0587088 9.17421e-05 2.18493e-19)
(0.0589394 9.20136e-05 4.21557e-20)
(0.0759767 -0.000109204 1.10992e-19)
(0.0598037 -8.85351e-05 -1.04485e-19)
(0.0607736 -9.10872e-05 -2.77137e-19)
(0.0607705 -9.24653e-05 2.02357e-20)
(0.0608048 -9.393e-05 -5.04649e-19)
(0.0608391 -9.54407e-05 8.64625e-20)
(0.0608746 -9.70009e-05 4.07072e-19)
(0.0611114 -9.72695e-05 8.33059e-20)
(0.0755898 -0.000102156 -4.78407e-19)
(0.059717 -9.39158e-05 7.75261e-20)
(0.0605534 -9.03868e-05 1.47696e-19)
(0.060556 -9.2174e-05 -1.04138e-20)
(0.0605865 -9.36127e-05 -4.77303e-21)
(0.0606173 -9.51138e-05 2.11778e-19)
(0.0606492 -9.66634e-05 -1.69774e-19)
(0.0608854 -9.69314e-05 -2.08706e-19)
(0.0753908 -0.000104901 -4.68409e-19)
(0.0594209 -8.94516e-05 2.21828e-19)
(0.0603766 -9.18917e-05 -1.4401e-20)
(0.060368 -9.32964e-05 -4.52563e-19)
(0.0603963 -9.47881e-05 4.29949e-19)
(0.0604246 -9.63272e-05 8.63588e-20)
(0.0606602 -9.65946e-05 -1.70321e-19)
(0.0752458 -0.00010988 -2.69482e-19)
(0.0592091 -8.89738e-05 -8.48057e-20)
(0.060163 -9.16075e-05 5.34182e-21)
(0.060151 -9.29978e-05 1.62701e-21)
(0.0601759 -9.44802e-05 -1.54585e-19)
(0.0602005 -9.60093e-05 1.19365e-19)
(0.0604355 -9.62763e-05 2.8939e-19)
(0.0749882 -0.000104967 -1.64572e-19)
(0.0590013 -8.48947e-05 2.45337e-19)
(0.059949 -8.74318e-05 -1.50421e-20)
(0.0599337 -8.87699e-05 2.95398e-19)
(0.0599551 -9.01972e-05 -2.6542e-19)
(0.0599761 -9.167e-05 2.28373e-19)
(0.0602105 -9.19262e-05 -4.8794e-19)
(0.074729 -8.43261e-05 -4.05448e-23)
(0.0587932 -6.81987e-05 2.41791e-19)
(0.0597342 -7.02095e-05 -1.4775e-20)
(0.0597156 -7.1281e-05 -2.62123e-22)
(0.0597335 -7.24222e-05 2.46438e-19)
(0.059751 -7.35995e-05 3.71012e-20)
(0.0599847 -7.38064e-05 2.50416e-19)
(0.0744038 -6.56962e-05 2.34397e-21)
(0.058654 -6.20907e-05 1.62724e-21)
(0.059518 -5.90219e-05 -9.25782e-22)
(0.0595012 -6.02612e-05 -1.92696e-21)
(0.0595155 -6.12166e-05 -3.70091e-22)
(0.0595295 -6.22162e-05 7.20702e-22)
(0.0597625 -6.23917e-05 -2.18186e-19)
(0.0741647 -6.18482e-05 5.76656e-19)
(0.0583875 -5.24691e-05 -3.32254e-20)
(0.0593142 -5.39385e-05 -4.96216e-19)
(0.0592895 -5.47641e-05 -1.84082e-19)
(0.0593007 -5.56428e-05 2.74938e-19)
(0.0595331 -5.58016e-05 -9.03384e-21)
(0.0739856 -6.41371e-05 -2.07956e-19)
(0.0581928 -5.16748e-05 1.18466e-20)
(0.0591164 -5.32216e-05 -2.39216e-19)
(0.0590888 -5.4012e-05 2.55147e-19)
(0.059097 -5.48566e-05 4.31792e-19)
(0.0593288 -5.50151e-05 -2.94276e-20)
(0.073691 -6.91374e-05 -2.82658e-19)
(0.0579846 -5.84065e-05 1.58724e-20)
(0.0588992 -5.99203e-05 -2.45946e-22)
(0.0588683 -6.08257e-05 4.4299e-19)
(0.0588729 -6.17831e-05 4.69215e-19)
(0.0591041 -6.19612e-05 2.63416e-20)
(0.0731972 -6.4281e-06 -1.40376e-20)
(0.0578171 -7.46936e-05 5.27207e-22)
(0.0586869 -7.02962e-05 -1.42663e-23)
(0.0586553 -7.16336e-05 2.78204e-19)
(0.0586565 -7.27286e-05 -1.75374e-20)
(0.0586568 -7.38674e-05 6.74885e-22)
(0.0588874 -7.40828e-05 -2.49222e-19)
)
;

boundaryField
{
    inlet
    {
        type            calculated;
        value           nonuniform List<vector> 0();
    }
    outlet2
    {
        type            calculated;
        value           uniform (0.0741049 0 0);
    }
    outlet1
    {
        type            calculated;
        value           uniform (0.0741049 0 0);
    }
    wall
    {
        type            calculated;
        value           uniform (0.0741049 0 0);
    }
    symmetryBottom
    {
        type            symmetry;
    }
    symmetryZ0
    {
        type            symmetry;
    }
    symmetryZ05
    {
        type            symmetry;
    }
    procBoundary0to1
    {
        type            processor;
        value           uniform (0.0741049 0 0);
    }
}


// ************************************************************************* //
