/*--------------------------------*- C++ -*----------------------------------*\
| =========                 |                                                 |
| \\      /  F ield         | OpenFOAM: The Open Source CFD Toolbox           |
|  \\    /   O peration     | Version:  2412                                  |
|   \\  /    A nd           | Website:  www.openfoam.com                      |
|    \\/     M anipulation  |                                                 |
\*---------------------------------------------------------------------------*/
FoamFile
{
    version     2.0;
    format      ascii;
    arch        "LSB;label=32;scalar=64";
    class       volScalarField;
    location    "8.6e-06";
    object      E;
}
// * * * * * * * * * * * * * * * * * * * * * * * * * * * * * * * * * * * * * //

dimensions      [0 0 0 0 0 0 0];

internalField   nonuniform List<scalar> 
84
(
101.893
54.5407
57.818
57.6836
57.7058
57.7253
57.6982
58.3515
108.58
58.208
61.7529
61.6704
61.7562
61.8408
61.8839
62.5706
107.25
58.2453
61.2643
61.2191
61.2962
61.3742
61.4102
62.093
106.157
57.4301
60.8551
60.7647
60.8395
60.8658
61.5444
106.189
56.8886
60.3428
60.2423
60.3085
60.3255
60.9998
105.333
56.4124
59.8319
59.7244
59.7821
59.7899
60.46
104.471
55.9425
59.3251
59.211
59.2602
59.259
59.9249
103.366
55.6794
58.8046
58.7028
58.7428
58.7327
59.3945
102.417
55.0587
58.3483
58.2247
58.2113
58.8687
101.971
54.5638
57.8478
57.7162
57.6942
58.3475
101.075
54.1053
57.3501
57.2121
57.1817
57.8309
99.387
53.7571
56.8475
56.709
56.7179
56.6739
57.3192
)
;

boundaryField
{
    inlet
    {
        type            calculated;
        value           nonuniform List<scalar> 0();
    }
    outlet2
    {
        type            calculated;
        value           uniform 0;
    }
    outlet1
    {
        type            calculated;
        value           uniform 0;
    }
    wall
    {
        type            calculated;
        value           uniform 0;
    }
    symmetryBottom
    {
        type            symmetry;
    }
    symmetryZ0
    {
        type            symmetry;
    }
    symmetryZ05
    {
        type            symmetry;
    }
    procBoundary0to1
    {
        type            processor;
        value           uniform 0;
    }
}


// ************************************************************************* //
