/*--------------------------------*- C++ -*----------------------------------*\
| =========                 |                                                 |
| \\      /  F ield         | OpenFOAM: The Open Source CFD Toolbox           |
|  \\    /   O peration     | Version:  2412                                  |
|   \\  /    A nd           | Website:  www.openfoam.com                      |
|    \\/     M anipulation  |                                                 |
\*---------------------------------------------------------------------------*/
FoamFile
{
    version     2.0;
    format      ascii;
    arch        "LSB;label=32;scalar=64";
    class       volScalarField;
    location    "8.6e-06";
    object      rho_dof0;
}
// * * * * * * * * * * * * * * * * * * * * * * * * * * * * * * * * * * * * * //

dimensions      [0 0 0 0 0 0 0];

internalField   nonuniform List<scalar> 
84
(
2.87964e-05
1.55415e-05
1.64487e-05
1.6412e-05
1.64182e-05
1.64237e-05
1.64163e-05
1.65994e-05
3.06642e-05
1.65729e-05
1.75539e-05
1.75319e-05
1.75559e-05
1.75797e-05
1.7592e-05
1.77844e-05
3.02941e-05
1.65811e-05
1.74168e-05
1.74049e-05
1.74265e-05
1.74485e-05
1.74587e-05
1.76501e-05
2.99898e-05
1.63535e-05
1.73015e-05
1.72773e-05
1.72982e-05
1.73058e-05
1.7496e-05
2.99963e-05
1.62016e-05
1.71576e-05
1.71305e-05
1.7149e-05
1.7154e-05
1.7343e-05
2.97572e-05
1.60676e-05
1.7014e-05
1.6985e-05
1.70011e-05
1.70035e-05
1.71913e-05
2.95167e-05
1.59353e-05
1.68716e-05
1.68406e-05
1.68544e-05
1.68543e-05
1.70409e-05
2.92087e-05
1.58602e-05
1.67254e-05
1.66978e-05
1.6709e-05
1.67063e-05
1.68918e-05
2.8944e-05
1.56863e-05
1.6597e-05
1.65634e-05
1.65598e-05
1.67441e-05
2.88184e-05
1.55472e-05
1.64564e-05
1.64204e-05
1.64144e-05
1.65976e-05
2.85682e-05
1.54181e-05
1.63164e-05
1.62787e-05
1.62703e-05
1.64523e-05
2.80964e-05
1.53195e-05
1.61752e-05
1.61373e-05
1.61397e-05
1.61275e-05
1.63084e-05
)
;

boundaryField
{
    inlet
    {
        type            calculated;
        value           nonuniform List<scalar> 0();
    }
    outlet2
    {
        type            calculated;
        value           uniform 2.81085e-05;
    }
    outlet1
    {
        type            calculated;
        value           uniform 2.81085e-05;
    }
    wall
    {
        type            calculated;
        value           uniform 2.81085e-05;
    }
    symmetryBottom
    {
        type            symmetry;
    }
    symmetryZ0
    {
        type            symmetry;
    }
    symmetryZ05
    {
        type            symmetry;
    }
    procBoundary0to1
    {
        type            processor;
        value           uniform 2.81085e-05;
    }
}


// ************************************************************************* //
