/*--------------------------------*- C++ -*----------------------------------*\
| =========                 |                                                 |
| \\      /  F ield         | OpenFOAM: The Open Source CFD Toolbox           |
|  \\    /   O peration     | Version:  2412                                  |
|   \\  /    A nd           | Website:  www.openfoam.com                      |
|    \\/     M anipulation  |                                                 |
\*---------------------------------------------------------------------------*/
FoamFile
{
    version     2.0;
    format      ascii;
    arch        "LSB;label=32;scalar=64";
    class       volVectorField;
    location    "8.6e-06";
    object      rhoU_dof0;
}
// * * * * * * * * * * * * * * * * * * * * * * * * * * * * * * * * * * * * * //

dimensions      [0 0 0 0 0 0 0];

internalField   nonuniform List<vector> 
84
(
(0.0759184 -4.3548e-06 3.0147e-19)
(0.040802 -2.77992e-06 -1.68718e-19)
(0.043219 -2.94967e-06 -4.71931e-19)
(0.0431205 -3.0346e-06 2.38087e-19)
(0.0431369 -3.12639e-06 -2.19798e-20)
(0.0431512 -3.22214e-06 -1.43451e-20)
(0.0431312 -3.32992e-06 4.21672e-19)
(0.0436161 -3.33978e-06 4.79364e-20)
(0.0808837 -0.000273065 2.94332e-19)
(0.0435341 -0.000152013 -1.66261e-19)
(0.0461486 -0.000162709 -5.89884e-19)
(0.0460889 -0.000164956 1.2286e-19)
(0.0461525 -0.000167662 -1.0294e-18)
(0.0462154 -0.00017044 1.28562e-19)
(0.0462476 -0.00017344 8.25135e-19)
(0.0467572 -0.000174772 1.51747e-19)
(0.0799001 -0.00025433 -1.3322e-18)
(0.0435588 -0.00016983 1.48399e-19)
(0.0457858 -0.000162947 2.86912e-19)
(0.0457533 -0.00016673 -2.06045e-20)
(0.0458105 -0.000169417 -5.31496e-20)
(0.0458685 -0.000172253 4.45146e-19)
(0.0458954 -0.000175317 -3.02965e-19)
(0.0464022 -0.000176658 -3.78911e-19)
(0.0790915 -0.000245512 -1.31771e-18)
(0.0429549 -0.000156756 4.71453e-19)
(0.0454814 -0.000165614 3.05013e-20)
(0.0454157 -0.000168034 -9.61809e-19)
(0.0454712 -0.000170834 8.72284e-19)
(0.045491 -0.000173848 1.55972e-19)
(0.0459946 -0.000175182 -2.93317e-19)
(0.0791118 -0.000275467 -7.02917e-19)
(0.0425529 -0.000153331 -1.434e-19)
(0.0451007 -0.00016435 1.08292e-20)
(0.0450275 -0.000166628 1.70183e-20)
(0.0450766 -0.000169386 -3.07226e-19)
(0.0450895 -0.00017235 1.8685e-19)
(0.0455899 -0.000173677 5.6125e-19)
(0.0784776 -0.000273821 -4.55369e-19)
(0.0421988 -0.000152051 5.08033e-19)
(0.044721 -0.000163 -7.95554e-20)
(0.0446427 -0.000165237 6.36472e-19)
(0.0446854 -0.00016795 -5.80938e-19)
(0.0446914 -0.000170864 5.12322e-19)
(0.0451888 -0.000172184 -8.97258e-19)
(0.0778394 -0.000271533 -3.97007e-20)
(0.0418493 -0.000150914 4.78153e-19)
(0.0443444 -0.000161651 -3.36877e-20)
(0.0442611 -0.000163858 -3.07432e-20)
(0.0442976 -0.000166527 5.00437e-19)
(0.0442969 -0.000169391 3.3327e-20)
(0.0447911 -0.000170704 4.70698e-19)
(0.0770217 -0.000250699 6.06495e-21)
(0.0416523 -0.000165414 6.80814e-21)
(0.0439578 -0.000158946 -1.64848e-21)
(0.0438834 -0.000162559 -5.94988e-21)
(0.043913 -0.000165112 1.88869e-21)
(0.0439058 -0.00016793 2.77918e-20)
(0.0443969 -0.000169237 -3.76955e-19)
(0.0763188 -0.000239841 1.57301e-18)
(0.0411917 -0.000152804 -3.19175e-20)
(0.0436185 -0.000161416 -9.46332e-19)
(0.043528 -0.000163705 -3.52047e-19)
(0.0435182 -0.000166482 5.34095e-19)
(0.0440062 -0.000167782 -2.4604e-20)
(0.0759872 -0.000269013 -5.45346e-19)
(0.0408239 -0.00014945 7.08753e-20)
(0.0432465 -0.000160163 -5.26229e-19)
(0.0431501 -0.000162313 4.70703e-19)
(0.0431339 -0.000165046 8.66824e-19)
(0.0436188 -0.000166339 -7.52748e-20)
(0.0753232 -0.000251858 -7.28352e-19)
(0.0404828 -0.000149541 4.85901e-20)
(0.0428766 -0.000158759 -6.1995e-20)
(0.0427754 -0.000160939 8.14888e-19)
(0.042753 -0.000163622 9.27058e-19)
(0.0432348 -0.000164909 2.00351e-20)
(0.0740727 -1.42088e-05 -3.56804e-20)
(0.040223 -0.000175615 2.6477e-21)
(0.0425031 -0.00015296 -4.03049e-20)
(0.0424014 -0.000157135 5.75698e-19)
(0.042408 -0.000159496 -4.25826e-20)
(0.0423755 -0.000162126 3.67942e-20)
(0.0428545 -0.000163411 -4.76612e-19)
)
;

boundaryField
{
    inlet
    {
        type            calculated;
        value           nonuniform List<vector> 0();
    }
    outlet2
    {
        type            calculated;
        value           uniform (0.0741049 0 0);
    }
    outlet1
    {
        type            calculated;
        value           uniform (0.0741049 0 0);
    }
    wall
    {
        type            calculated;
        value           uniform (0.0741049 0 0);
    }
    symmetryBottom
    {
        type            symmetry;
    }
    symmetryZ0
    {
        type            symmetry;
    }
    symmetryZ05
    {
        type            symmetry;
    }
    procBoundary0to1
    {
        type            processor;
        value           uniform (0.0741049 0 0);
    }
}


// ************************************************************************* //
