/*--------------------------------*- C++ -*----------------------------------*\
| =========                 |                                                 |
| \\      /  F ield         | OpenFOAM: The Open Source CFD Toolbox           |
|  \\    /   O peration     | Version:  2412                                  |
|   \\  /    A nd           | Website:  www.openfoam.com                      |
|    \\/     M anipulation  |                                                 |
\*---------------------------------------------------------------------------*/
FoamFile
{
    version     2.0;
    format      ascii;
    arch        "LSB;label=32;scalar=64";
    class       volVectorField;
    location    "8.6e-06";
    object      U;
}
// * * * * * * * * * * * * * * * * * * * * * * * * * * * * * * * * * * * * * //

dimensions      [0 0 0 0 0 0 0];

internalField   nonuniform List<vector> 
84
(
(2636.39 -0.151227 1.0469e-14)
(2625.35 -0.17887 -1.0856e-14)
(2627.51 -0.179326 -2.86911e-14)
(2627.37 -0.184901 1.45069e-14)
(2627.38 -0.190422 -1.33874e-15)
(2627.38 -0.196189 -8.73439e-16)
(2627.34 -0.202843 2.56862e-14)
(2627.57 -0.201199 2.88784e-15)
(2637.73 -8.90502 9.59855e-15)
(2626.83 -9.17237 -1.00321e-14)
(2628.97 -9.26915 -3.36042e-14)
(2628.86 -9.40894 7.00779e-15)
(2628.89 -9.5502 -5.86358e-14)
(2628.91 -9.69528 7.31309e-15)
(2628.91 -9.85907 4.69041e-14)
(2629.12 -9.82728 8.53258e-15)
(2637.48 -8.39537 -4.39757e-14)
(2627.02 -10.2424 8.94989e-15)
(2628.83 -9.35573 1.64733e-14)
(2628.76 -9.57949 -1.18383e-15)
(2628.78 -9.72178 -3.04992e-15)
(2628.8 -9.87213 2.5512e-14)
(2628.8 -10.0418 -1.73532e-14)
(2629.01 -10.0089 -2.1468e-14)
(2637.28 -8.18652 -4.39385e-14)
(2626.66 -9.58549 2.88289e-14)
(2628.75 -9.5722 1.76292e-15)
(2628.64 -9.7257 -5.5669e-14)
(2628.66 -9.8758 5.04262e-14)
(2628.65 -10.0457 9.01268e-15)
(2628.87 -10.0127 -1.67648e-14)
(2637.39 -9.18338 -2.34335e-14)
(2626.47 -9.46398 -8.85101e-15)
(2628.62 -9.57886 6.31164e-16)
(2628.5 -9.72699 9.93453e-16)
(2628.52 -9.87732 -1.79151e-14)
(2628.51 -10.0472 1.08925e-14)
(2628.73 -10.0143 3.23618e-14)
(2637.26 -9.20181 -1.53028e-14)
(2626.34 -9.46325 3.16186e-14)
(2628.48 -9.58035 -4.67588e-15)
(2628.37 -9.72843 3.74727e-14)
(2628.39 -9.8788 -3.41706e-14)
(2628.37 -10.0488 3.01304e-14)
(2628.59 -10.0158 -5.21927e-14)
(2637.13 -9.19929 -1.34503e-15)
(2626.2 -9.47041 3.00059e-14)
(2628.35 -9.58122 -1.99671e-15)
(2628.23 -9.7299 -1.82554e-15)
(2628.25 -9.88029 2.96918e-14)
(2628.23 -10.0503 1.97737e-15)
(2628.45 -10.0173 2.76217e-14)
(2636.94 -8.58302 2.07642e-16)
(2626.21 -10.4295 4.29258e-16)
(2628.2 -9.50324 -9.8561e-17)
(2628.09 -9.73534 -3.56327e-16)
(2628.11 -9.88164 1.13035e-16)
(2628.09 -10.0519 1.66355e-15)
(2628.31 -10.0188 -2.23158e-14)
(2636.78 -8.28637 5.43466e-14)
(2625.97 -9.74123 -2.03474e-15)
(2628.09 -9.72559 -5.70181e-14)
(2627.96 -9.88353 -2.12545e-14)
(2627.95 -10.0534 3.22526e-14)
(2628.17 -10.0204 -1.46941e-15)
(2636.76 -9.33476 -1.89235e-14)
(2625.8 -9.61264 4.55872e-15)
(2627.95 -9.73259 -3.19772e-14)
(2627.83 -9.88483 2.86657e-14)
(2627.81 -10.055 5.28088e-14)
(2628.03 -10.0219 -4.53529e-15)
(2636.61 -8.81603 -2.54952e-14)
(2625.67 -9.69907 3.1515e-15)
(2627.81 -9.72999 -3.79954e-15)
(2627.69 -9.88647 5.00585e-14)
(2627.67 -10.0565 5.69785e-14)
(2627.89 -10.0234 1.21777e-15)
(2636.38 -0.505717 -1.26993e-15)
(2625.61 -11.4635 1.72832e-16)
(2627.67 -9.45648 -2.49177e-15)
(2627.55 -9.7374 3.5675e-14)
(2627.55 -9.88219 -2.63837e-15)
(2627.53 -10.0527 2.28145e-15)
(2627.75 -10.02 -2.92248e-14)
)
;

boundaryField
{
    inlet
    {
        type            calculated;
        value           nonuniform List<vector> 0();
    }
    outlet2
    {
        type            calculated;
        value           uniform (0 0 0);
    }
    outlet1
    {
        type            calculated;
        value           uniform (0 0 0);
    }
    wall
    {
        type            calculated;
        value           uniform (0 0 0);
    }
    symmetryBottom
    {
        type            symmetry;
    }
    symmetryZ0
    {
        type            symmetry;
    }
    symmetryZ05
    {
        type            symmetry;
    }
    procBoundary0to1
    {
        type            processor;
        value           uniform (0 0 0);
    }
}


// ************************************************************************* //
