/*--------------------------------*- C++ -*----------------------------------*\
| =========                 |                                                 |
| \\      /  F ield         | OpenFOAM: The Open Source CFD Toolbox           |
|  \\    /   O peration     | Version:  2412                                  |
|   \\  /    A nd           | Website:  www.openfoam.com                      |
|    \\/     M anipulation  |                                                 |
\*---------------------------------------------------------------------------*/
FoamFile
{
    version     2.0;
    format      ascii;
    arch        "LSB;label=32;scalar=64";
    class       volScalarField;
    location    "3.9e-06";
    object      E;
}
// * * * * * * * * * * * * * * * * * * * * * * * * * * * * * * * * * * * * * //

dimensions      [0 0 0 0 0 0 0];

internalField   nonuniform List<scalar> 
84
(
99.4341
45.9838
53.7717
99.4483
46.0022
53.7881
99.4447
45.9999
53.7856
99.4447
45.9999
53.7856
99.4447
45.9999
53.7856
99.4447
45.9999
53.7856
99.4447
45.9999
53.7856
99.4447
45.9999
53.7856
99.4447
45.9999
53.7856
99.4447
45.9999
53.7856
99.4447
45.9999
53.7856
99.4449
45.9956
53.7827
78.802
77.0574
77.4275
81.7182
79.8059
80.1929
81.4156
79.5206
79.9039
81.114
79.2362
79.3518
76.9386
80.8131
78.9526
79.0631
79.365
80.5141
78.6707
78.7761
79.0772
80.222
78.395
78.4955
78.7959
79.935
78.1242
78.22
78.5184
79.6742
77.8764
77.9679
77.979
77.0206
79.2996
77.5274
77.6124
77.6183
77.9179
79.0213
77.2643
77.3446
77.3473
77.6994
78.7358
76.9946
77.0704
77.3663
)
;

boundaryField
{
    inlet
    {
        type            calculated;
        value           uniform 0;
    }
    outlet2
    {
        type            calculated;
        value           uniform 0;
    }
    outlet1
    {
        type            calculated;
        value           nonuniform List<scalar> 0();
    }
    wall
    {
        type            calculated;
        value           uniform 0;
    }
    symmetryBottom
    {
        type            symmetry;
    }
    symmetryZ0
    {
        type            symmetry;
    }
    symmetryZ05
    {
        type            symmetry;
    }
    procBoundary1to0
    {
        type            processor;
        value           uniform 0;
    }
}


// ************************************************************************* //
