/*--------------------------------*- C++ -*----------------------------------*\
| =========                 |                                                 |
| \\      /  F ield         | OpenFOAM: The Open Source CFD Toolbox           |
|  \\    /   O peration     | Version:  2412                                  |
|   \\  /    A nd           | Website:  www.openfoam.com                      |
|    \\/     M anipulation  |                                                 |
\*---------------------------------------------------------------------------*/
FoamFile
{
    version     2.0;
    format      ascii;
    arch        "LSB;label=32;scalar=64";
    class       volVectorField;
    location    "3.9e-06";
    object      rhoU_dof0;
}
// * * * * * * * * * * * * * * * * * * * * * * * * * * * * * * * * * * * * * //

dimensions      [0 0 0 0 0 0 0];

internalField   nonuniform List<vector> 
84
(
(0.0741075 -2.58439e-07 0)
(0.0344664 -4.74352e-07 0)
(0.0402113 -3.97044e-07 -1.05391e-19)
(0.0741181 -9.3757e-05 0)
(0.0344802 -5.33984e-05 0)
(0.0402236 -5.98901e-05 -1.02266e-19)
(0.0741154 -9.34953e-05 0)
(0.0344785 -5.32402e-05 0)
(0.0402218 -5.97149e-05 1.37393e-19)
(0.0741154 -9.34953e-05 0)
(0.0344785 -5.32402e-05 0)
(0.0402218 -5.97149e-05 -1.77257e-19)
(0.0741154 -9.34953e-05 0)
(0.0344785 -5.32402e-05 0)
(0.0402218 -5.97149e-05 -2.89639e-19)
(0.0741154 -9.34953e-05 0)
(0.0344785 -5.32402e-05 0)
(0.0402218 -5.97149e-05 1.73303e-19)
(0.0741154 -9.34953e-05 0)
(0.0344785 -5.32402e-05 0)
(0.0402218 -5.97149e-05 -2.17851e-19)
(0.0741154 -9.34953e-05 0)
(0.0344785 -5.32402e-05 0)
(0.0402218 -5.97149e-05 -2.49047e-19)
(0.0741154 -9.34953e-05 0)
(0.0344785 -5.32402e-05 0)
(0.0402218 -5.97149e-05 1.03036e-19)
(0.0741154 -9.34953e-05 0)
(0.0344785 -5.32402e-05 0)
(0.0402218 -5.97149e-05 -2.16317e-19)
(0.0741154 -9.34953e-05 0)
(0.0344785 -5.32384e-05 0)
(0.0402218 -5.97136e-05 -5.37929e-19)
(0.0741156 -9.35079e-05 0)
(0.0344754 -5.29308e-05 0)
(0.0402196 -5.95002e-05 0)
(0.0588066 9.15719e-05 7.03099e-21)
(0.0575189 8.63304e-05 9.81117e-20)
(0.0577929 8.6855e-05 9.92444e-21)
(0.0609654 -9.20515e-05 6.76934e-21)
(0.0595543 -9.13185e-05 1.04731e-19)
(0.0598407 -9.16478e-05 -1.85109e-21)
(0.060741 -9.17405e-05 -9.88465e-21)
(0.0593426 -9.10118e-05 -4.9242e-20)
(0.0596263 -9.12781e-05 -2.08565e-19)
(0.0605173 -9.14226e-05 1.26966e-20)
(0.0591317 -9.07065e-05 -2.15052e-21)
(0.0592168 -9.21158e-05 1.07429e-22)
(0.0574267 4.23329e-06 1.56338e-19)
(0.0602942 -9.11226e-05 -3.17783e-20)
(0.0589212 -9.04179e-05 4.16473e-22)
(0.0590025 -9.1818e-05 -1.60498e-21)
(0.0592265 -9.20669e-05 1.6093e-19)
(0.0600707 -8.67513e-05 -1.2469e-20)
(0.0587105 -8.63081e-05 -1.01865e-19)
(0.058788 -8.76458e-05 3.56837e-21)
(0.0590114 -8.7885e-05 1.06769e-19)
(0.0598465 -6.87986e-05 1.50896e-20)
(0.058499 -6.93434e-05 -1.06048e-21)
(0.0585728 -7.03741e-05 -3.51685e-22)
(0.0587955 -7.05681e-05 -8.56942e-22)
(0.0596258 -5.74801e-05 1.90298e-20)
(0.0582908 -5.86413e-05 -1.01729e-19)
(0.0583609 -5.9486e-05 1.10433e-19)
(0.0585822 -5.96056e-05 1.22088e-21)
(0.0593985 -5.09902e-05 -6.85454e-21)
(0.0580758 -5.24936e-05 -1.53233e-19)
(0.0581421 -5.32156e-05 -1.46148e-19)
(0.0581496 -5.39941e-05 1.73987e-19)
(0.0574914 4.48859e-06 9.55273e-19)
(0.0591939 -5.02764e-05 1.61807e-20)
(0.0578844 -5.18081e-05 -1.54453e-19)
(0.0579472 -5.24991e-05 1.08475e-19)
(0.0579519 -5.32498e-05 2.34206e-19)
(0.0581748 -5.36195e-05 1.40515e-19)
(0.058971 -5.71827e-05 3.91046e-20)
(0.0576738 -5.83104e-05 -1.58291e-21)
(0.0577329 -5.91204e-05 2.40681e-22)
(0.057735 -6.00142e-05 -1.74236e-22)
(0.0579961 -6.30636e-05 -1.57426e-19)
(0.0587558 -6.92795e-05 1.12445e-22)
(0.0574705 -6.96852e-05 1.48754e-19)
(0.0575261 -7.06904e-05 -9.27436e-21)
(0.0577457 -7.08649e-05 -2.34918e-19)
)
;

boundaryField
{
    inlet
    {
        type            calculated;
        value           uniform (0.0741049 0 0);
    }
    outlet2
    {
        type            calculated;
        value           uniform (0.0741049 0 0);
    }
    outlet1
    {
        type            calculated;
        value           nonuniform List<vector> 0();
    }
    wall
    {
        type            calculated;
        value           uniform (0.0741049 0 0);
    }
    symmetryBottom
    {
        type            symmetry;
    }
    symmetryZ0
    {
        type            symmetry;
    }
    symmetryZ05
    {
        type            symmetry;
    }
    procBoundary1to0
    {
        type            processor;
        value           uniform (0.0741049 0 0);
    }
}


// ************************************************************************* //
