/*--------------------------------*- C++ -*----------------------------------*\
| =========                 |                                                 |
| \\      /  F ield         | OpenFOAM: The Open Source CFD Toolbox           |
|  \\    /   O peration     | Version:  2412                                  |
|   \\  /    A nd           | Website:  www.openfoam.com                      |
|    \\/     M anipulation  |                                                 |
\*---------------------------------------------------------------------------*/
FoamFile
{
    version     2.0;
    format      ascii;
    arch        "LSB;label=32;scalar=64";
    class       volScalarField;
    location    "6.8e-06";
    object      T;
}
// * * * * * * * * * * * * * * * * * * * * * * * * * * * * * * * * * * * * * //

dimensions      [0 0 0 0 0 0 0];

internalField   nonuniform List<scalar> 
84
(
200.013
195.089
200.312
199.969
194.932
200.228
199.958
194.911
200.212
199.958
194.911
200.212
199.958
194.911
200.212
199.958
194.911
200.212
199.958
194.911
200.212
199.958
194.911
200.212
199.958
194.911
200.212
199.958
194.911
200.212
199.958
194.91
200.212
199.958
194.864
200.203
204.318
204.028
204.061
200.025
199.986
199.999
200.025
199.986
200
200.025
199.986
199.999
200.034
200.031
199.991
200.004
200.004
200.652
200.566
200.588
200.586
203.848
203.574
203.662
203.653
206.87
206.41
206.561
206.545
220.086
218.577
219.054
219.36
197.942
192.672
193.004
192.875
192.767
192.37
198.253
198.316
198.293
198.268
198.41
199.282
199.286
199.283
199.284
)
;

boundaryField
{
    inlet
    {
        type            calculated;
        value           uniform 0;
    }
    outlet2
    {
        type            calculated;
        value           uniform 0;
    }
    outlet1
    {
        type            calculated;
        value           nonuniform List<scalar> 0();
    }
    wall
    {
        type            calculated;
        value           uniform 0;
    }
    symmetryBottom
    {
        type            symmetry;
    }
    symmetryZ0
    {
        type            symmetry;
    }
    symmetryZ05
    {
        type            symmetry;
    }
    procBoundary1to0
    {
        type            processor;
        value           uniform 0;
    }
}


// ************************************************************************* //
