/*--------------------------------*- C++ -*----------------------------------*\
| =========                 |                                                 |
| \\      /  F ield         | OpenFOAM: The Open Source CFD Toolbox           |
|  \\    /   O peration     | Version:  2412                                  |
|   \\  /    A nd           | Website:  www.openfoam.com                      |
|    \\/     M anipulation  |                                                 |
\*---------------------------------------------------------------------------*/
FoamFile
{
    version     2.0;
    format      ascii;
    arch        "LSB;label=32;scalar=64";
    class       volScalarField;
    location    "3e-07";
    object      E;
}
// * * * * * * * * * * * * * * * * * * * * * * * * * * * * * * * * * * * * * //

dimensions      [0 0 0 0 0 0 0];

internalField   nonuniform List<scalar> 
84
(
99.4306
94.6952
94.7334
99.4307
94.696
94.7342
99.4306
94.696
94.7342
99.4306
94.696
94.7342
99.4306
94.696
94.7342
99.4306
94.696
94.7342
99.4306
94.696
94.7342
99.4306
94.696
94.7342
99.4306
94.696
94.7342
99.4306
94.696
94.7342
99.4306
94.696
94.7342
99.4307
94.6957
94.7339
97.5107
97.5014
97.5284
97.7747
97.7683
97.7953
97.748
97.7413
97.7683
97.7213
97.7143
97.7173
97.4982
97.6946
97.6873
97.69
97.7174
97.6681
97.6605
97.6628
97.6902
97.6422
97.6343
97.6362
97.6636
97.6164
97.6082
97.6098
97.6372
97.5935
97.5851
97.5863
97.5876
97.4984
97.5585
97.5497
97.5505
97.5512
97.579
97.5339
97.5249
97.5252
97.5256
97.5535
97.5077
97.4983
97.4984
97.5257
)
;

boundaryField
{
    inlet
    {
        type            calculated;
        value           uniform 0;
    }
    outlet2
    {
        type            calculated;
        value           uniform 0;
    }
    outlet1
    {
        type            calculated;
        value           nonuniform List<scalar> 0();
    }
    wall
    {
        type            calculated;
        value           uniform 0;
    }
    symmetryBottom
    {
        type            symmetry;
    }
    symmetryZ0
    {
        type            symmetry;
    }
    symmetryZ05
    {
        type            symmetry;
    }
    procBoundary1to0
    {
        type            processor;
        value           uniform 0;
    }
}


// ************************************************************************* //
