/*--------------------------------*- C++ -*----------------------------------*\
| =========                 |                                                 |
| \\      /  F ield         | OpenFOAM: The Open Source CFD Toolbox           |
|  \\    /   O peration     | Version:  2412                                  |
|   \\  /    A nd           | Website:  www.openfoam.com                      |
|    \\/     M anipulation  |                                                 |
\*---------------------------------------------------------------------------*/
FoamFile
{
    version     2.0;
    format      ascii;
    arch        "LSB;label=32;scalar=64";
    class       volScalarField;
    location    "3e-07";
    object      rho_dof0;
}
// * * * * * * * * * * * * * * * * * * * * * * * * * * * * * * * * * * * * * //

dimensions      [0 0 0 0 0 0 0];

internalField   nonuniform List<scalar> 
84
(
2.81085e-05
2.67853e-05
2.67958e-05
2.81085e-05
2.67855e-05
2.6796e-05
2.81085e-05
2.67855e-05
2.6796e-05
2.81085e-05
2.67855e-05
2.6796e-05
2.81085e-05
2.67855e-05
2.6796e-05
2.81085e-05
2.67855e-05
2.6796e-05
2.81085e-05
2.67855e-05
2.6796e-05
2.81085e-05
2.67855e-05
2.6796e-05
2.81085e-05
2.67855e-05
2.6796e-05
2.81085e-05
2.67855e-05
2.6796e-05
2.81085e-05
2.67855e-05
2.6796e-05
2.81085e-05
2.67854e-05
2.6796e-05
2.75727e-05
2.75702e-05
2.75777e-05
2.76458e-05
2.7644e-05
2.76516e-05
2.76383e-05
2.76365e-05
2.7644e-05
2.76308e-05
2.76289e-05
2.76298e-05
2.75685e-05
2.76234e-05
2.76214e-05
2.76221e-05
2.76298e-05
2.76159e-05
2.76138e-05
2.76145e-05
2.76221e-05
2.76085e-05
2.76063e-05
2.76068e-05
2.76145e-05
2.7601e-05
2.75988e-05
2.75992e-05
2.76069e-05
2.75936e-05
2.75912e-05
2.75916e-05
2.75919e-05
2.75686e-05
2.75862e-05
2.75837e-05
2.7584e-05
2.75842e-05
2.75919e-05
2.75787e-05
2.75762e-05
2.75763e-05
2.75764e-05
2.75842e-05
2.75712e-05
2.75687e-05
2.75687e-05
2.75763e-05
)
;

boundaryField
{
    inlet
    {
        type            calculated;
        value           uniform 2.81085e-05;
    }
    outlet2
    {
        type            calculated;
        value           uniform 2.81085e-05;
    }
    outlet1
    {
        type            calculated;
        value           nonuniform List<scalar> 0();
    }
    wall
    {
        type            calculated;
        value           uniform 2.81085e-05;
    }
    symmetryBottom
    {
        type            symmetry;
    }
    symmetryZ0
    {
        type            symmetry;
    }
    symmetryZ05
    {
        type            symmetry;
    }
    procBoundary1to0
    {
        type            processor;
        value           uniform 2.81085e-05;
    }
}


// ************************************************************************* //
