/*--------------------------------*- C++ -*----------------------------------*\
| =========                 |                                                 |
| \\      /  F ield         | OpenFOAM: The Open Source CFD Toolbox           |
|  \\    /   O peration     | Version:  2412                                  |
|   \\  /    A nd           | Website:  www.openfoam.com                      |
|    \\/     M anipulation  |                                                 |
\*---------------------------------------------------------------------------*/
FoamFile
{
    version     2.0;
    format      ascii;
    arch        "LSB;label=32;scalar=64";
    class       volScalarField;
    location    "5.3e-06";
    object      rho_dof0;
}
// * * * * * * * * * * * * * * * * * * * * * * * * * * * * * * * * * * * * * //

dimensions      [0 0 0 0 0 0 0];

internalField   nonuniform List<scalar> 
84
(
2.81102e-05
8.81894e-06
1.25476e-05
2.81172e-05
8.82564e-06
1.25537e-05
2.81154e-05
8.82478e-06
1.25527e-05
2.81154e-05
8.82478e-06
1.25527e-05
2.81154e-05
8.82478e-06
1.25527e-05
2.81154e-05
8.82478e-06
1.25527e-05
2.81154e-05
8.82478e-06
1.25527e-05
2.81154e-05
8.82478e-06
1.25527e-05
2.81154e-05
8.82478e-06
1.25527e-05
2.81154e-05
8.82478e-06
1.25527e-05
2.81154e-05
8.82477e-06
1.25527e-05
2.81155e-05
8.82329e-06
1.25518e-05
2.07615e-05
1.99559e-05
2.01092e-05
2.17965e-05
2.09014e-05
2.10646e-05
2.1687e-05
2.08013e-05
2.09625e-05
2.1578e-05
2.07017e-05
2.07666e-05
1.99041e-05
2.14694e-05
2.06024e-05
2.06652e-05
2.0772e-05
2.13608e-05
2.05032e-05
2.05638e-05
2.06703e-05
2.12524e-05
2.04042e-05
2.04628e-05
2.05688e-05
2.11457e-05
2.03068e-05
2.03633e-05
2.04684e-05
2.10344e-05
2.02052e-05
2.02595e-05
2.02617e-05
1.99472e-05
2.09368e-05
2.01158e-05
2.01683e-05
2.01693e-05
2.02759e-05
2.08279e-05
2.00163e-05
2.00667e-05
2.00665e-05
2.01989e-05
2.07243e-05
1.99214e-05
1.99698e-05
2.00738e-05
)
;

boundaryField
{
    inlet
    {
        type            calculated;
        value           uniform 2.81085e-05;
    }
    outlet2
    {
        type            calculated;
        value           uniform 2.81085e-05;
    }
    outlet1
    {
        type            calculated;
        value           nonuniform List<scalar> 0();
    }
    wall
    {
        type            calculated;
        value           uniform 2.81085e-05;
    }
    symmetryBottom
    {
        type            symmetry;
    }
    symmetryZ0
    {
        type            symmetry;
    }
    symmetryZ05
    {
        type            symmetry;
    }
    procBoundary1to0
    {
        type            processor;
        value           uniform 2.81085e-05;
    }
}


// ************************************************************************* //
