/*--------------------------------*- C++ -*----------------------------------*\
| =========                 |                                                 |
| \\      /  F ield         | OpenFOAM: The Open Source CFD Toolbox           |
|  \\    /   O peration     | Version:  2412                                  |
|   \\  /    A nd           | Website:  www.openfoam.com                      |
|    \\/     M anipulation  |                                                 |
\*---------------------------------------------------------------------------*/
FoamFile
{
    version     2.0;
    format      ascii;
    arch        "LSB;label=32;scalar=64";
    class       volVectorField;
    location    "5.3e-06";
    object      rhoU;
}
// * * * * * * * * * * * * * * * * * * * * * * * * * * * * * * * * * * * * * //

dimensions      [0 0 0 0 0 0 0];

internalField   nonuniform List<vector> 
84
(
(0.0741095 -4.53354e-07 0)
(0.0230036 -6.03331e-07 0)
(0.0329357 -4.98005e-07 -1.20229e-19)
(0.0741278 -0.000120591 0)
(0.0230212 -5.0934e-05 0)
(0.0329518 -6.62241e-05 -1.16321e-19)
(0.0741232 -0.000120145 0)
(0.023019 -5.07266e-05 0)
(0.0329491 -6.59629e-05 1.56908e-19)
(0.0741232 -0.000120145 0)
(0.023019 -5.07266e-05 0)
(0.0329491 -6.59629e-05 -2.06972e-19)
(0.0741232 -0.000120145 0)
(0.023019 -5.07266e-05 0)
(0.0329491 -6.59629e-05 -3.14638e-19)
(0.0741232 -0.000120145 0)
(0.023019 -5.07266e-05 0)
(0.0329491 -6.59629e-05 2.01407e-19)
(0.0741232 -0.000120145 0)
(0.023019 -5.07266e-05 0)
(0.0329491 -6.59629e-05 -2.25708e-19)
(0.0741232 -0.000120145 0)
(0.023019 -5.07266e-05 0)
(0.0329491 -6.59629e-05 -2.60777e-19)
(0.0741232 -0.000120145 0)
(0.023019 -5.07266e-05 0)
(0.0329491 -6.59629e-05 1.18641e-19)
(0.0741232 -0.000120145 0)
(0.023019 -5.07266e-05 0)
(0.0329491 -6.59628e-05 -2.26545e-19)
(0.0741232 -0.000120145 0)
(0.0230189 -5.07236e-05 0)
(0.0329491 -6.59611e-05 -6.09815e-19)
(0.0741233 -0.00012016 0)
(0.023015 -5.03434e-05 0)
(0.0329468 -6.5741e-05 0)
(0.0546237 0.000116045 1.1781e-20)
(0.052481 0.000105938 1.24259e-19)
(0.0528882 0.000107065 1.28854e-20)
(0.0573874 -0.000117759 1.13458e-20)
(0.0550043 -0.000114686 1.34749e-19)
(0.0554384 -0.000115396 -3.25763e-21)
(0.0570974 -0.000117208 -1.60649e-20)
(0.0547393 -0.000114156 -6.35287e-20)
(0.0551681 -0.000114751 -2.29581e-19)
(0.0568086 -0.000116643 2.06317e-20)
(0.0544756 -0.00011363 -3.30339e-21)
(0.0546492 -0.000115583 2.13776e-22)
(0.0523649 7.42653e-06 2.0136e-19)
(0.0565208 -0.000116111 -3.34952e-20)
(0.0542128 -0.000113134 8.62805e-22)
(0.0543807 -0.00011507 -2.06145e-21)
(0.0546634 -0.000115501 2.11532e-19)
(0.0562325 -0.000110817 -2.02898e-20)
(0.0539496 -0.000108326 -1.30461e-19)
(0.0541118 -0.000110178 7.60935e-21)
(0.0543936 -0.000110593 1.43143e-19)
(0.0559432 -8.74551e-05 2.42655e-20)
(0.0536853 -8.69302e-05 -2.24811e-21)
(0.0538419 -8.83167e-05 -1.51496e-22)
(0.0541227 -8.86546e-05 -1.12098e-21)
(0.0556598 -7.30002e-05 2.98809e-20)
(0.0534264 -7.36714e-05 -1.32121e-19)
(0.0535775 -7.47852e-05 1.4486e-19)
(0.0538558 -7.49921e-05 1.92971e-21)
(0.0553639 -6.41039e-05 -1.14108e-20)
(0.0531552 -6.54998e-05 -1.97725e-19)
(0.0533005 -6.64157e-05 -1.83986e-19)
(0.0533063 -6.73922e-05 2.15377e-19)
(0.0524779 7.84028e-06 1.16268e-18)
(0.0551087 -6.25708e-05 2.55736e-20)
(0.0529244 -6.40843e-05 -1.92441e-19)
(0.0530647 -6.4937e-05 1.38842e-19)
(0.0530672 -6.58624e-05 2.67426e-19)
(0.0533496 -6.65262e-05 1.71663e-19)
(0.0548206 -7.15766e-05 6.31904e-20)
(0.0526609 -7.22817e-05 -3.64892e-21)
(0.0527956 -7.33173e-05 3.94754e-22)
(0.0527949 -7.44472e-05 -3.32163e-22)
(0.0531456 -7.98293e-05 -2.09902e-19)
(0.0545468 -8.686e-05 1.42565e-22)
(0.0524102 -8.61819e-05 1.87094e-19)
(0.0525398 -8.75038e-05 -1.63549e-20)
(0.0528151 -8.78028e-05 -2.68241e-19)
)
;

boundaryField
{
    inlet
    {
        type            calculated;
        value           uniform (0 0 0);
    }
    outlet2
    {
        type            calculated;
        value           uniform (0 0 0);
    }
    outlet1
    {
        type            calculated;
        value           nonuniform List<vector> 0();
    }
    wall
    {
        type            calculated;
        value           uniform (0 0 0);
    }
    symmetryBottom
    {
        type            symmetry;
    }
    symmetryZ0
    {
        type            symmetry;
    }
    symmetryZ05
    {
        type            symmetry;
    }
    procBoundary1to0
    {
        type            processor;
        value           uniform (0 0 0);
    }
}


// ************************************************************************* //
