/*--------------------------------*- C++ -*----------------------------------*\
| =========                 |                                                 |
| \\      /  F ield         | OpenFOAM: The Open Source CFD Toolbox           |
|  \\    /   O peration     | Version:  2412                                  |
|   \\  /    A nd           | Website:  www.openfoam.com                      |
|    \\/     M anipulation  |                                                 |
\*---------------------------------------------------------------------------*/
FoamFile
{
    version     2.0;
    format      ascii;
    arch        "LSB;label=32;scalar=64";
    class       volScalarField;
    location    "5.3e-06";
    object      T;
}
// * * * * * * * * * * * * * * * * * * * * * * * * * * * * * * * * * * * * * //

dimensions      [0 0 0 0 0 0 0];

internalField   nonuniform List<scalar> 
84
(
200.009
199.072
200.137
199.979
198.996
200.082
199.971
198.985
200.072
199.971
198.985
200.072
199.971
198.985
200.072
199.971
198.985
200.072
199.971
198.985
200.072
199.971
198.985
200.072
199.971
198.985
200.072
199.971
198.985
200.072
199.971
198.985
200.072
199.971
198.964
200.064
203.327
203.146
203.16
200.02
199.992
199.999
200.02
199.992
199.999
200.02
199.992
199.999
200.021
200.024
199.996
200.002
200.002
200.546
200.489
200.502
200.501
202.972
202.801
202.858
202.853
205.26
204.978
205.077
205.069
214.843
214.004
214.298
214.522
198.806
194.389
194.597
194.504
194.421
194.209
198.671
198.706
198.688
198.669
198.755
199.455
199.453
199.449
199.45
)
;

boundaryField
{
    inlet
    {
        type            calculated;
        value           uniform 0;
    }
    outlet2
    {
        type            calculated;
        value           uniform 0;
    }
    outlet1
    {
        type            calculated;
        value           nonuniform List<scalar> 0();
    }
    wall
    {
        type            calculated;
        value           uniform 0;
    }
    symmetryBottom
    {
        type            symmetry;
    }
    symmetryZ0
    {
        type            symmetry;
    }
    symmetryZ05
    {
        type            symmetry;
    }
    procBoundary1to0
    {
        type            processor;
        value           uniform 0;
    }
}


// ************************************************************************* //
