/*--------------------------------*- C++ -*----------------------------------*\
| =========                 |                                                 |
| \\      /  F ield         | OpenFOAM: The Open Source CFD Toolbox           |
|  \\    /   O peration     | Version:  2412                                  |
|   \\  /    A nd           | Website:  www.openfoam.com                      |
|    \\/     M anipulation  |                                                 |
\*---------------------------------------------------------------------------*/
FoamFile
{
    version     2.0;
    format      ascii;
    arch        "LSB;label=32;scalar=64";
    class       volScalarField;
    location    "8.1e-06";
    object      E;
}
// * * * * * * * * * * * * * * * * * * * * * * * * * * * * * * * * * * * * * //

dimensions      [0 0 0 0 0 0 0];

internalField   nonuniform List<scalar> 
84
(
99.4434
4.43548
31.8297
99.4934
4.45918
31.8588
99.4807
4.45662
31.8527
99.4807
4.45661
31.8527
99.4807
4.45661
31.8527
99.4807
4.45661
31.8527
99.4807
4.45661
31.8527
99.4807
4.45661
31.8527
99.4807
4.45661
31.8527
99.4807
4.45661
31.8527
99.4807
4.45653
31.8527
99.481
4.44985
31.8504
63.6906
58.2816
59.3122
68.7716
62.5902
63.7311
68.2292
62.13
63.2517
67.6901
61.6731
62.3228
58.1598
67.154
61.2188
61.8528
62.3394
66.62
60.766
61.3844
61.8686
66.099
60.3233
60.9267
61.4086
65.5949
59.8946
60.4838
60.959
65.1254
59.4883
60.0654
60.0489
58.456
64.497
58.9706
59.5269
59.5032
60.0065
63.9967
58.5442
59.0864
59.0591
59.7635
63.5088
58.1287
58.6574
59.1257
)
;

boundaryField
{
    inlet
    {
        type            calculated;
        value           uniform 0;
    }
    outlet2
    {
        type            calculated;
        value           uniform 0;
    }
    outlet1
    {
        type            calculated;
        value           nonuniform List<scalar> 0();
    }
    wall
    {
        type            calculated;
        value           uniform 0;
    }
    symmetryBottom
    {
        type            symmetry;
    }
    symmetryZ0
    {
        type            symmetry;
    }
    symmetryZ05
    {
        type            symmetry;
    }
    procBoundary1to0
    {
        type            processor;
        value           uniform 0;
    }
}


// ************************************************************************* //
