/*--------------------------------*- C++ -*----------------------------------*\
| =========                 |                                                 |
| \\      /  F ield         | OpenFOAM: The Open Source CFD Toolbox           |
|  \\    /   O peration     | Version:  2412                                  |
|   \\  /    A nd           | Website:  www.openfoam.com                      |
|    \\/     M anipulation  |                                                 |
\*---------------------------------------------------------------------------*/
FoamFile
{
    version     2.0;
    format      ascii;
    arch        "LSB;label=32;scalar=64";
    class       volScalarField;
    location    "8.1e-06";
    object      rho;
}
// * * * * * * * * * * * * * * * * * * * * * * * * * * * * * * * * * * * * * //

dimensions      [0 0 0 0 0 0 0];

internalField   nonuniform List<scalar> 
84
(
2.81121e-05
1.47909e-06
9.08008e-06
2.81262e-05
1.48606e-06
9.08839e-06
2.81227e-05
1.48529e-06
9.08668e-06
2.81227e-05
1.48529e-06
9.08668e-06
2.81227e-05
1.48529e-06
9.08668e-06
2.81227e-05
1.48529e-06
9.08668e-06
2.81227e-05
1.48529e-06
9.08668e-06
2.81227e-05
1.48529e-06
9.08668e-06
2.81227e-05
1.48529e-06
9.08668e-06
2.81227e-05
1.48529e-06
9.08668e-06
2.81227e-05
1.48527e-06
9.08667e-06
2.81228e-05
1.48335e-06
9.08601e-06
1.81017e-05
1.65948e-05
1.68811e-05
1.95122e-05
1.77934e-05
1.81098e-05
1.93602e-05
1.76641e-05
1.79752e-05
1.92091e-05
1.75357e-05
1.77144e-05
1.65466e-05
1.90588e-05
1.7408e-05
1.75824e-05
1.77192e-05
1.89085e-05
1.72803e-05
1.74504e-05
1.75866e-05
1.87585e-05
1.71531e-05
1.73188e-05
1.74543e-05
1.86124e-05
1.7029e-05
1.71906e-05
1.73242e-05
1.84557e-05
1.68962e-05
1.70532e-05
1.70485e-05
1.66358e-05
1.83291e-05
1.67879e-05
1.69415e-05
1.69353e-05
1.70775e-05
1.81779e-05
1.66595e-05
1.68087e-05
1.68014e-05
1.6999e-05
1.80384e-05
1.65406e-05
1.6686e-05
1.68177e-05
)
;

boundaryField
{
    inlet
    {
        type            calculated;
        value           uniform 0;
    }
    outlet2
    {
        type            calculated;
        value           uniform 0;
    }
    outlet1
    {
        type            calculated;
        value           nonuniform List<scalar> 0();
    }
    wall
    {
        type            calculated;
        value           uniform 0;
    }
    symmetryBottom
    {
        type            symmetry;
    }
    symmetryZ0
    {
        type            symmetry;
    }
    symmetryZ05
    {
        type            symmetry;
    }
    procBoundary1to0
    {
        type            processor;
        value           uniform 0;
    }
}


// ************************************************************************* //
