/*--------------------------------*- C++ -*----------------------------------*\
| =========                 |                                                 |
| \\      /  F ield         | OpenFOAM: The Open Source CFD Toolbox           |
|  \\    /   O peration     | Version:  2412                                  |
|   \\  /    A nd           | Website:  www.openfoam.com                      |
|    \\/     M anipulation  |                                                 |
\*---------------------------------------------------------------------------*/
FoamFile
{
    version     2.0;
    format      ascii;
    arch        "LSB;label=32;scalar=64";
    class       volVectorField;
    location    "8.1e-06";
    object      rhoU_dof0;
}
// * * * * * * * * * * * * * * * * * * * * * * * * * * * * * * * * * * * * * //

dimensions      [0 0 0 0 0 0 0];

internalField   nonuniform List<vector> 
84
(
(0.0741143 -9.36287e-07 0)
(0.00359668 -6.81938e-07 0)
(0.0238278 -6.26408e-07 -1.08536e-19)
(0.0741516 -0.000165672 0)
(0.00361473 -2.40684e-05 0)
(0.0238496 -7.13548e-05 -1.10083e-19)
(0.0741423 -0.000164784 0)
(0.00361277 -2.38992e-05 0)
(0.0238451 -7.09366e-05 1.47533e-19)
(0.0741423 -0.000164784 0)
(0.00361277 -2.38991e-05 0)
(0.0238451 -7.09366e-05 -2.11797e-19)
(0.0741423 -0.000164784 0)
(0.00361277 -2.38991e-05 0)
(0.0238451 -7.09366e-05 -3.23266e-19)
(0.0741423 -0.000164784 0)
(0.00361277 -2.38991e-05 0)
(0.0238451 -7.09366e-05 2.07654e-19)
(0.0741423 -0.000164784 0)
(0.00361277 -2.38991e-05 0)
(0.0238451 -7.09366e-05 -2.45359e-19)
(0.0741423 -0.000164784 0)
(0.00361277 -2.38991e-05 0)
(0.0238451 -7.09366e-05 -2.77219e-19)
(0.0741423 -0.000164784 0)
(0.00361277 -2.38991e-05 0)
(0.0238451 -7.09366e-05 1.10029e-19)
(0.0741423 -0.000164784 0)
(0.00361277 -2.38991e-05 0)
(0.0238451 -7.09366e-05 -2.47066e-19)
(0.0741423 -0.000164784 0)
(0.00361271 -2.38931e-05 0)
(0.0238451 -7.09343e-05 -6.42785e-19)
(0.0741425 -0.000164803 0)
(0.00360771 -2.34063e-05 0)
(0.0238434 -7.07657e-05 0)
(0.0475818 0.000154822 2.10375e-20)
(0.043581 0.00013142 1.66304e-19)
(0.0443422 0.000134732 1.79943e-20)
(0.0513463 -0.000161105 2.03964e-20)
(0.0467764 -0.000149249 1.85491e-19)
(0.0476187 -0.0001515 -6.47831e-21)
(0.0509438 -0.000159929 -2.82594e-20)
(0.0464344 -0.000148187 -8.8346e-20)
(0.0472626 -0.000150176 -2.61517e-19)
(0.0505437 -0.000158716 3.73758e-20)
(0.0460949 -0.000147137 -6.4611e-21)
(0.0465728 -0.000150679 5.91145e-22)
(0.0434818 1.53162e-05 2.10457e-19)
(0.0501457 -0.000157577 -3.26638e-20)
(0.0457572 -0.000146148 1.49583e-21)
(0.0462235 -0.000149643 -2.79056e-21)
(0.0465852 -0.000150487 2.11332e-19)
(0.0497471 -0.00015123 -3.67308e-20)
(0.0454189 -0.000140828 -1.743e-19)
(0.0458736 -0.000144179 1.881e-20)
(0.0462336 -0.000144997 1.96434e-19)
(0.0493468 -0.000118349 4.28169e-20)
(0.0450791 -0.00011278 -5.95878e-21)
(0.0455222 -0.000115173 8.04377e-22)
(0.0458804 -0.000115846 -1.58683e-21)
(0.0489584 -9.88402e-05 5.13194e-20)
(0.0447491 -9.60547e-05 -1.82183e-19)
(0.0451812 -9.79217e-05 2.01063e-19)
(0.0455344 -9.83269e-05 3.53256e-21)
(0.0485409 -8.50492e-05 -2.05133e-20)
(0.0443929 -8.42506e-05 -2.17891e-19)
(0.0448132 -8.56724e-05 -2.00193e-19)
(0.0448001 -8.6931e-05 2.48703e-19)
(0.0437157 1.60616e-05 1.43283e-18)
(0.0482125 -8.11828e-05 4.46496e-20)
(0.0441185 -8.09671e-05 -2.16575e-19)
(0.0445288 -8.22032e-05 1.98018e-19)
(0.0445121 -8.33546e-05 3.02421e-19)
(0.0448884 -8.48133e-05 2.16492e-19)
(0.0478124 -9.39566e-05 1.13414e-19)
(0.0437779 -9.17291e-05 -1.07514e-20)
(0.0441768 -9.33562e-05 1.02921e-21)
(0.044157 -9.48375e-05 -7.3513e-22)
(0.0446796 -0.000106102 -2.16629e-19)
(0.047444 -0.000114227 1.90482e-22)
(0.0434639 -0.000108829 2.144e-19)
(0.0438527 -0.000111021 -3.32123e-20)
(0.0442009 -0.000111598 -3.0979e-19)
)
;

boundaryField
{
    inlet
    {
        type            calculated;
        value           uniform (0.0741049 0 0);
    }
    outlet2
    {
        type            calculated;
        value           uniform (0.0741049 0 0);
    }
    outlet1
    {
        type            calculated;
        value           nonuniform List<vector> 0();
    }
    wall
    {
        type            calculated;
        value           uniform (0.0741049 0 0);
    }
    symmetryBottom
    {
        type            symmetry;
    }
    symmetryZ0
    {
        type            symmetry;
    }
    symmetryZ05
    {
        type            symmetry;
    }
    procBoundary1to0
    {
        type            processor;
        value           uniform (0.0741049 0 0);
    }
}


// ************************************************************************* //
