/*--------------------------------*- C++ -*----------------------------------*\
| =========                 |                                                 |
| \\      /  F ield         | OpenFOAM: The Open Source CFD Toolbox           |
|  \\    /   O peration     | Version:  2412                                  |
|   \\  /    A nd           | Website:  www.openfoam.com                      |
|    \\/     M anipulation  |                                                 |
\*---------------------------------------------------------------------------*/
FoamFile
{
    version     2.0;
    format      ascii;
    arch        "LSB;label=32;scalar=64";
    class       volScalarField;
    location    "6.6e-06";
    object      E_dof0;
}
// * * * * * * * * * * * * * * * * * * * * * * * * * * * * * * * * * * * * * //

dimensions      [0 0 0 0 0 0 0];

internalField   nonuniform List<scalar> 
84
(
99.4397
17.6911
37.2763
99.4755
17.7165
37.3016
99.4664
17.7133
37.2968
99.4664
17.7133
37.2968
99.4664
17.7133
37.2968
99.4664
17.7133
37.2968
99.4664
17.7133
37.2968
99.4664
17.7133
37.2968
99.4664
17.7133
37.2968
99.4664
17.7133
37.2968
99.4664
17.7133
37.2968
99.4666
17.7073
37.294
68.5163
64.4555
65.2087
72.9181
68.3432
69.1611
72.453
67.9322
68.738
71.9902
67.5235
67.9223
64.3031
71.5294
67.1167
67.5046
67.9438
71.0709
66.7116
67.0888
67.5261
70.6232
66.3155
66.6824
67.1178
70.1877
65.93
66.2869
66.7176
69.7852
65.5691
65.9174
65.9188
64.5133
69.2336
65.0924
65.4265
65.4209
65.8629
68.8052
64.7123
65.0367
65.0272
65.6093
68.3795
64.335
64.6499
65.075
)
;

boundaryField
{
    inlet
    {
        type            calculated;
        value           uniform 99.4306;
    }
    outlet2
    {
        type            calculated;
        value           uniform 99.4306;
    }
    outlet1
    {
        type            calculated;
        value           nonuniform List<scalar> 0();
    }
    wall
    {
        type            calculated;
        value           uniform 99.4306;
    }
    symmetryBottom
    {
        type            symmetry;
    }
    symmetryZ0
    {
        type            symmetry;
    }
    symmetryZ05
    {
        type            symmetry;
    }
    procBoundary1to0
    {
        type            processor;
        value           uniform 99.4306;
    }
}


// ************************************************************************* //
