/*--------------------------------*- C++ -*----------------------------------*\
| =========                 |                                                 |
| \\      /  F ield         | OpenFOAM: The Open Source CFD Toolbox           |
|  \\    /   O peration     | Version:  2412                                  |
|   \\  /    A nd           | Website:  www.openfoam.com                      |
|    \\/     M anipulation  |                                                 |
\*---------------------------------------------------------------------------*/
FoamFile
{
    version     2.0;
    format      ascii;
    arch        "LSB;label=32;scalar=64";
    class       volScalarField;
    location    "9.2e-06";
    object      E_dof0;
}
// * * * * * * * * * * * * * * * * * * * * * * * * * * * * * * * * * * * * * //

dimensions      [0 0 0 0 0 0 0];

internalField   nonuniform List<scalar> 
84
(
118.631
7.62014
17.3758
118.672
7.70364
16.6941
118.697
7.69711
16.7821
118.697
7.68719
16.871
118.698
7.67729
16.9597
118.699
7.66744
17.0479
118.7
7.65762
17.1357
118.701
7.64785
17.2229
118.702
7.63812
17.3096
118.703
7.62842
17.3959
118.704
7.61873
17.4817
118.706
7.60896
17.5669
58.9816
55.3891
52.6702
63.1736
59.1901
56.2737
62.6955
58.7554
55.9138
62.1557
58.1136
58.9424
49.9291
61.6144
57.6441
58.0501
54.9088
61.0784
57.1604
57.5471
54.5096
60.5468
56.6804
57.0547
54.0468
60.0196
56.2044
56.5655
53.6095
59.4968
55.7362
55.9516
56.2756
50.679
58.9784
55.2677
55.4818
55.6124
52.6742
58.4643
54.8034
55.0079
55.1241
52.2853
57.9549
54.34
54.6521
51.8551
)
;

boundaryField
{
    inlet
    {
        type            calculated;
        value           uniform 99.4306;
    }
    outlet2
    {
        type            calculated;
        value           uniform 99.4306;
    }
    outlet1
    {
        type            calculated;
        value           nonuniform List<scalar> 0();
    }
    wall
    {
        type            calculated;
        value           uniform 99.4306;
    }
    symmetryBottom
    {
        type            symmetry;
    }
    symmetryZ0
    {
        type            symmetry;
    }
    symmetryZ05
    {
        type            symmetry;
    }
    procBoundary1to0
    {
        type            processor;
        value           uniform 99.4306;
    }
}


// ************************************************************************* //
