/*--------------------------------*- C++ -*----------------------------------*\
| =========                 |                                                 |
| \\      /  F ield         | OpenFOAM: The Open Source CFD Toolbox           |
|  \\    /   O peration     | Version:  2412                                  |
|   \\  /    A nd           | Website:  www.openfoam.com                      |
|    \\/     M anipulation  |                                                 |
\*---------------------------------------------------------------------------*/
FoamFile
{
    version     2.0;
    format      ascii;
    arch        "LSB;label=32;scalar=64";
    class       volScalarField;
    location    "9.2e-06";
    object      rho_dof0;
}
// * * * * * * * * * * * * * * * * * * * * * * * * * * * * * * * * * * * * * //

dimensions      [0 0 0 0 0 0 0];

internalField   nonuniform List<scalar> 
84
(
3.34286e-05
2.34137e-06
5.03974e-06
3.34399e-05
2.36452e-06
4.85005e-06
3.34468e-05
2.36279e-06
4.87456e-06
3.34471e-05
2.36007e-06
4.89924e-06
3.34473e-05
2.35735e-06
4.92389e-06
3.34476e-05
2.35464e-06
4.94838e-06
3.34478e-05
2.35195e-06
4.97275e-06
3.34481e-05
2.34926e-06
4.99698e-06
3.34483e-05
2.34659e-06
5.02108e-06
3.34486e-05
2.34392e-06
5.04504e-06
3.34488e-05
2.34126e-06
5.06887e-06
3.34492e-05
2.33857e-06
5.09255e-06
1.67661e-05
1.5767e-05
1.50161e-05
1.79425e-05
1.68352e-05
1.60301e-05
1.78082e-05
1.67129e-05
1.59282e-05
1.76566e-05
1.65337e-05
1.67624e-05
1.42494e-05
1.75047e-05
1.64015e-05
1.65131e-05
1.5646e-05
1.73543e-05
1.62655e-05
1.63717e-05
1.55333e-05
1.7205e-05
1.61305e-05
1.62333e-05
1.5403e-05
1.7057e-05
1.59966e-05
1.60957e-05
1.52797e-05
1.69102e-05
1.58649e-05
1.59242e-05
1.60136e-05
1.44571e-05
1.67647e-05
1.57331e-05
1.5792e-05
1.58278e-05
1.50164e-05
1.66203e-05
1.56025e-05
1.56587e-05
1.56905e-05
1.49066e-05
1.64772e-05
1.54721e-05
1.55576e-05
1.47853e-05
)
;

boundaryField
{
    inlet
    {
        type            calculated;
        value           uniform 2.81085e-05;
    }
    outlet2
    {
        type            calculated;
        value           uniform 2.81085e-05;
    }
    outlet1
    {
        type            calculated;
        value           nonuniform List<scalar> 0();
    }
    wall
    {
        type            calculated;
        value           uniform 2.81085e-05;
    }
    symmetryBottom
    {
        type            symmetry;
    }
    symmetryZ0
    {
        type            symmetry;
    }
    symmetryZ05
    {
        type            symmetry;
    }
    procBoundary1to0
    {
        type            processor;
        value           uniform 2.81085e-05;
    }
}


// ************************************************************************* //
