/*--------------------------------*- C++ -*----------------------------------*\
| =========                 |                                                 |
| \\      /  F ield         | OpenFOAM: The Open Source CFD Toolbox           |
|  \\    /   O peration     | Version:  2412                                  |
|   \\  /    A nd           | Website:  www.openfoam.com                      |
|    \\/     M anipulation  |                                                 |
\*---------------------------------------------------------------------------*/
FoamFile
{
    version     2.0;
    format      ascii;
    arch        "LSB;label=32;scalar=64";
    class       volScalarField;
    location    "1.9e-06";
    object      E;
}
// * * * * * * * * * * * * * * * * * * * * * * * * * * * * * * * * * * * * * //

dimensions      [0 0 0 0 0 0 0];

internalField   nonuniform List<scalar> 
84
(
99.2866
87.4966
87.8511
87.845
87.8458
87.8465
87.8472
88.0253
101.05
89.0842
89.4681
89.4864
89.5124
89.5391
89.5667
89.7473
100.819
88.9642
89.3009
89.3182
89.3416
89.3656
89.3904
89.5708
100.67
88.7792
89.1571
89.171
89.1924
89.2144
89.3945
100.532
88.6137
88.9894
89.0007
89.0194
89.0387
89.2185
100.351
88.4503
88.8229
88.8316
88.8477
88.8642
89.0438
100.174
88.2905
88.6601
88.6663
88.6797
88.6935
88.8729
99.971
88.1562
88.4983
88.5028
88.5137
88.5249
88.704
99.8265
87.9987
88.3625
88.3642
88.373
88.552
99.615
87.7854
88.1457
88.1441
88.1495
88.3281
99.4315
87.6315
87.9885
87.9844
87.9872
88.1656
99.0772
87.4841
87.8232
87.8171
87.8173
87.8174
87.9955
)
;

boundaryField
{
    inlet
    {
        type            calculated;
        value           nonuniform List<scalar> 0();
    }
    outlet2
    {
        type            calculated;
        value           uniform 0;
    }
    outlet1
    {
        type            calculated;
        value           uniform 0;
    }
    wall
    {
        type            calculated;
        value           uniform 0;
    }
    symmetryBottom
    {
        type            symmetry;
    }
    symmetryZ0
    {
        type            symmetry;
    }
    symmetryZ05
    {
        type            symmetry;
    }
    procBoundary0to1
    {
        type            processor;
        value           uniform 0;
    }
}


// ************************************************************************* //
