/*--------------------------------*- C++ -*----------------------------------*\
| =========                 |                                                 |
| \\      /  F ield         | OpenFOAM: The Open Source CFD Toolbox           |
|  \\    /   O peration     | Version:  2412                                  |
|   \\  /    A nd           | Website:  www.openfoam.com                      |
|    \\/     M anipulation  |                                                 |
\*---------------------------------------------------------------------------*/
FoamFile
{
    version     2.0;
    format      ascii;
    arch        "LSB;label=32;scalar=64";
    class       volScalarField;
    location    "1.9e-06";
    object      rho;
}
// * * * * * * * * * * * * * * * * * * * * * * * * * * * * * * * * * * * * * //

dimensions      [0 0 0 0 0 0 0];

internalField   nonuniform List<scalar> 
84
(
2.80741e-05
2.47774e-05
2.48754e-05
2.48738e-05
2.48741e-05
2.48744e-05
2.48746e-05
2.49245e-05
2.8562e-05
2.52171e-05
2.53233e-05
2.53284e-05
2.53357e-05
2.53432e-05
2.53509e-05
2.54014e-05
2.84975e-05
2.51834e-05
2.52765e-05
2.52814e-05
2.52879e-05
2.52946e-05
2.53016e-05
2.5352e-05
2.8456e-05
2.51318e-05
2.52363e-05
2.52402e-05
2.52462e-05
2.52524e-05
2.53027e-05
2.84173e-05
2.50855e-05
2.51894e-05
2.51926e-05
2.51978e-05
2.52032e-05
2.52535e-05
2.83664e-05
2.50395e-05
2.51425e-05
2.5145e-05
2.51495e-05
2.51541e-05
2.52043e-05
2.83155e-05
2.49936e-05
2.50957e-05
2.50975e-05
2.51012e-05
2.5105e-05
2.51552e-05
2.82572e-05
2.49545e-05
2.5049e-05
2.50502e-05
2.50532e-05
2.50563e-05
2.51064e-05
2.82097e-05
2.49038e-05
2.50042e-05
2.50045e-05
2.50068e-05
2.50569e-05
2.81667e-05
2.48587e-05
2.49584e-05
2.4958e-05
2.49596e-05
2.50096e-05
2.81114e-05
2.48121e-05
2.49108e-05
2.49097e-05
2.49105e-05
2.49604e-05
2.80108e-05
2.477e-05
2.48637e-05
2.4862e-05
2.48621e-05
2.48621e-05
2.49119e-05
)
;

boundaryField
{
    inlet
    {
        type            calculated;
        value           nonuniform List<scalar> 0();
    }
    outlet2
    {
        type            calculated;
        value           uniform 0;
    }
    outlet1
    {
        type            calculated;
        value           uniform 0;
    }
    wall
    {
        type            calculated;
        value           uniform 0;
    }
    symmetryBottom
    {
        type            symmetry;
    }
    symmetryZ0
    {
        type            symmetry;
    }
    symmetryZ05
    {
        type            symmetry;
    }
    procBoundary0to1
    {
        type            processor;
        value           uniform 0;
    }
}


// ************************************************************************* //
