/*--------------------------------*- C++ -*----------------------------------*\
| =========                 |                                                 |
| \\      /  F ield         | OpenFOAM: The Open Source CFD Toolbox           |
|  \\    /   O peration     | Version:  2412                                  |
|   \\  /    A nd           | Website:  www.openfoam.com                      |
|    \\/     M anipulation  |                                                 |
\*---------------------------------------------------------------------------*/
FoamFile
{
    version     2.0;
    format      ascii;
    arch        "LSB;label=32;scalar=64";
    class       volVectorField;
    location    "1.9e-06";
    object      rhoU_dof0;
}
// * * * * * * * * * * * * * * * * * * * * * * * * * * * * * * * * * * * * * //

dimensions      [0 0 0 0 0 0 0];

internalField   nonuniform List<vector> 
84
(
(0.0740019 5.6205e-05 5.94628e-20)
(0.0652622 5.05196e-05 -6.00547e-20)
(0.0655235 5.14524e-05 -1.36447e-19)
(0.0655191 5.22169e-05 6.29648e-20)
(0.0655197 5.30081e-05 -1.35811e-21)
(0.0655202 5.38235e-05 7.57899e-21)
(0.0655208 5.46645e-05 1.29512e-19)
(0.0656529 5.47462e-05 2.7217e-20)
(0.0753063 -5.71854e-05 5.90937e-20)
(0.0664371 -5.18036e-05 -5.74741e-20)
(0.0667202 -5.27513e-05 -1.66028e-19)
(0.0667338 -5.35572e-05 6.86428e-21)
(0.0667531 -5.43909e-05 -2.93768e-19)
(0.0667729 -5.52511e-05 3.93685e-20)
(0.0667933 -5.61388e-05 2.41996e-19)
(0.0669272 -5.62155e-05 5.67414e-20)
(0.075135 -5.51879e-05 -2.65956e-19)
(0.0663479 -5.32057e-05 3.87252e-20)
(0.0665962 -5.26129e-05 8.57341e-20)
(0.0666091 -5.34688e-05 -3.48786e-21)
(0.0666264 -5.42989e-05 -1.83804e-21)
(0.0666442 -5.51561e-05 1.20257e-19)
(0.0666626 -5.60408e-05 -9.4335e-20)
(0.0667963 -5.61174e-05 -1.2809e-19)
(0.0750249 -5.63224e-05 -2.68418e-19)
(0.0662109 -5.24356e-05 1.22432e-19)
(0.0664896 -5.33813e-05 -4.49722e-21)
(0.0664999 -5.42069e-05 -2.69467e-19)
(0.0665158 -5.50613e-05 2.46752e-19)
(0.0665321 -5.5943e-05 5.41725e-20)
(0.0666657 -5.60194e-05 -9.20679e-20)
(0.0749225 -5.77713e-05 -1.45698e-19)
(0.0660883 -5.23239e-05 -5.42105e-20)
(0.0663653 -5.32962e-05 1.67261e-21)
(0.0663737 -5.41188e-05 4.75476e-22)
(0.0663876 -5.49704e-05 -8.57704e-20)
(0.0664018 -5.58492e-05 6.5973e-20)
(0.0665352 -5.59256e-05 1.82505e-19)
(0.0747872 -5.49582e-05 -9.16179e-20)
(0.0659661 -4.97389e-05 1.47432e-19)
(0.0662408 -5.06685e-05 -4.33535e-21)
(0.0662472 -5.14537e-05 1.78095e-19)
(0.0662591 -5.22668e-05 -1.54691e-19)
(0.0662714 -5.31059e-05 1.30918e-19)
(0.0664045 -5.31792e-05 -2.8482e-19)
(0.0746513 -4.42618e-05 -1.26986e-23)
(0.0658435 -4.00303e-05 1.4525e-19)
(0.0661159 -4.0776e-05 -4.30316e-21)
(0.0661204 -4.14067e-05 -3.82385e-22)
(0.0661303 -4.20596e-05 1.50096e-19)
(0.0661405 -4.27335e-05 2.51341e-20)
(0.0662735 -4.27931e-05 1.58304e-19)
(0.0744964 -3.57845e-05 5.33271e-22)
(0.0657396 -3.493e-05 3.57858e-22)
(0.0659916 -3.43507e-05 -4.68903e-22)
(0.0659949 -3.49252e-05 -5.94052e-22)
(0.0660028 -3.54762e-05 -5.263e-23)
(0.0660109 -3.60456e-05 1.14753e-22)
(0.0661437 -3.60964e-05 -1.16994e-19)
(0.0743702 -3.34237e-05 3.20336e-19)
(0.0656049 -3.09761e-05 -9.20566e-21)
(0.0658725 -3.15478e-05 -2.94527e-19)
(0.0658734 -3.20403e-05 -1.16177e-19)
(0.0658795 -3.25504e-05 1.52977e-19)
(0.0660121 -3.25969e-05 -8.42543e-23)
(0.0742567 -3.42696e-05 -1.13659e-19)
(0.0654864 -3.09017e-05 3.38916e-21)
(0.0657523 -3.14833e-05 -1.46088e-19)
(0.0657513 -3.19681e-05 1.52759e-19)
(0.0657555 -3.24702e-05 2.679e-19)
(0.065888 -3.25172e-05 -4.39017e-21)
(0.0741106 -3.76342e-05 -1.54664e-19)
(0.0653632 -3.47166e-05 4.48061e-21)
(0.0656263 -3.53411e-05 3.23554e-23)
(0.0656234 -3.58876e-05 2.66189e-19)
(0.0656256 -3.64531e-05 2.88262e-19)
(0.0657578 -3.65058e-05 2.64808e-20)
(0.0738445 -1.89744e-06 -4.05326e-21)
(0.0652519 -4.27366e-05 7.55879e-23)
(0.0655018 -4.16871e-05 -9.95919e-25)
(0.0654973 -4.23634e-05 1.74813e-19)
(0.0654975 -4.30184e-05 -5.31281e-21)
(0.0654976 -4.36946e-05 1.00131e-22)
(0.0656297 -4.37589e-05 -1.53268e-19)
)
;

boundaryField
{
    inlet
    {
        type            calculated;
        value           nonuniform List<vector> 0();
    }
    outlet2
    {
        type            calculated;
        value           uniform (0.0741049 0 0);
    }
    outlet1
    {
        type            calculated;
        value           uniform (0.0741049 0 0);
    }
    wall
    {
        type            calculated;
        value           uniform (0.0741049 0 0);
    }
    symmetryBottom
    {
        type            symmetry;
    }
    symmetryZ0
    {
        type            symmetry;
    }
    symmetryZ05
    {
        type            symmetry;
    }
    procBoundary0to1
    {
        type            processor;
        value           uniform (0.0741049 0 0);
    }
}


// ************************************************************************* //
