/*--------------------------------*- C++ -*----------------------------------*\
| =========                 |                                                 |
| \\      /  F ield         | OpenFOAM: The Open Source CFD Toolbox           |
|  \\    /   O peration     | Version:  2412                                  |
|   \\  /    A nd           | Website:  www.openfoam.com                      |
|    \\/     M anipulation  |                                                 |
\*---------------------------------------------------------------------------*/
FoamFile
{
    version     2.0;
    format      ascii;
    arch        "LSB;label=32;scalar=64";
    class       volScalarField;
    location    "5.6e-06";
    object      rho_dof0;
}
// * * * * * * * * * * * * * * * * * * * * * * * * * * * * * * * * * * * * * //

dimensions      [0 0 0 0 0 0 0];

internalField   nonuniform List<scalar> 
84
(
2.75395e-05
1.88866e-05
1.96712e-05
1.96256e-05
1.96288e-05
1.96299e-05
1.96311e-05
1.97543e-05
2.89555e-05
1.98807e-05
2.07192e-05
2.06874e-05
2.07071e-05
2.07253e-05
2.07441e-05
2.08724e-05
2.86925e-05
1.9883e-05
2.05956e-05
2.05752e-05
2.05924e-05
2.06086e-05
2.06255e-05
2.07533e-05
2.85827e-05
1.96869e-05
2.05105e-05
2.04761e-05
2.04927e-05
2.05076e-05
2.06349e-05
2.85268e-05
1.95749e-05
2.03987e-05
2.03624e-05
2.03772e-05
2.03901e-05
2.05169e-05
2.83759e-05
1.94687e-05
2.02866e-05
2.02488e-05
2.02617e-05
2.02727e-05
2.0399e-05
2.82245e-05
1.93634e-05
2.01747e-05
2.01355e-05
2.01465e-05
2.01557e-05
2.02814e-05
2.80163e-05
1.93195e-05
2.00582e-05
2.00247e-05
2.00335e-05
2.00408e-05
2.0166e-05
2.78773e-05
1.9158e-05
1.99547e-05
1.99126e-05
1.99201e-05
2.00446e-05
2.77935e-05
1.90586e-05
1.9854e-05
1.98106e-05
1.98165e-05
1.99406e-05
2.76107e-05
1.8954e-05
1.97395e-05
1.96947e-05
1.96987e-05
1.98222e-05
2.73279e-05
1.88822e-05
1.96281e-05
1.95852e-05
1.95873e-05
1.95875e-05
1.97105e-05
)
;

boundaryField
{
    inlet
    {
        type            calculated;
        value           nonuniform List<scalar> 0();
    }
    outlet2
    {
        type            calculated;
        value           uniform 2.81085e-05;
    }
    outlet1
    {
        type            calculated;
        value           uniform 2.81085e-05;
    }
    wall
    {
        type            calculated;
        value           uniform 2.81085e-05;
    }
    symmetryBottom
    {
        type            symmetry;
    }
    symmetryZ0
    {
        type            symmetry;
    }
    symmetryZ05
    {
        type            symmetry;
    }
    procBoundary0to1
    {
        type            processor;
        value           uniform 2.81085e-05;
    }
}


// ************************************************************************* //
