/*--------------------------------*- C++ -*----------------------------------*\
| =========                 |                                                 |
| \\      /  F ield         | OpenFOAM: The Open Source CFD Toolbox           |
|  \\    /   O peration     | Version:  2412                                  |
|   \\  /    A nd           | Website:  www.openfoam.com                      |
|    \\/     M anipulation  |                                                 |
\*---------------------------------------------------------------------------*/
FoamFile
{
    version     2.0;
    format      ascii;
    arch        "LSB;label=32;scalar=64";
    class       volScalarField;
    location    "1.68142e-07";
    object      E;
}
// * * * * * * * * * * * * * * * * * * * * * * * * * * * * * * * * * * * * * //

dimensions      [0 0 0 0 0 0 0];

internalField   nonuniform List<scalar> 
625
(
99.466
96.7821
96.7821
99.4662
96.7823
96.7823
99.4662
96.7823
96.7823
99.4662
96.7823
96.7823
99.4662
96.7823
96.7823
99.4662
96.7823
96.7823
99.4662
96.7823
96.7823
99.4662
96.7823
96.7823
99.4662
96.7823
96.7823
99.4662
96.7823
96.7823
99.4662
96.7823
96.7823
99.4662
96.7823
96.7823
99.4662
96.7823
96.7823
99.4662
96.7823
96.7823
99.4662
96.7823
96.7823
99.4662
96.7823
96.7823
99.4662
96.7823
96.7823
99.4662
96.7823
96.7823
99.4662
96.7823
96.7823
99.4662
96.7823
96.7823
99.4662
96.7823
96.7823
99.4662
96.7823
96.7823
99.4662
96.7823
96.7823
99.4662
96.7823
96.7823
99.466
96.7818
96.7818
97.2219
97.2216
97.2212
97.2209
97.2205
97.2202
97.2198
97.2195
97.2191
97.2187
97.2183
97.2179
97.2175
97.2171
97.2167
97.2163
97.2159
97.2155
97.215
97.2146
97.2142
97.2311
97.613
97.6154
97.6178
97.6202
97.6227
97.6252
97.6277
97.6303
97.6329
97.6356
97.6383
97.641
97.6438
97.6466
97.6494
97.6523
97.6553
97.6583
97.6613
97.6644
97.6675
97.6846
97.5977
97.6
97.6023
97.6046
97.607
97.6093
97.6118
97.6142
97.6167
97.6192
97.6218
97.6244
97.6271
97.6297
97.6325
97.6352
97.638
97.6409
97.6438
97.6467
97.6497
97.6668
97.5829
97.585
97.5872
97.5894
97.5917
97.594
97.5963
97.5986
97.601
97.6034
97.6059
97.6084
97.6109
97.6134
97.616
97.6187
97.6214
97.6241
97.6269
97.6297
97.6325
97.6495
97.568
97.5701
97.5722
97.5743
97.5764
97.5786
97.5808
97.583
97.5853
97.5876
97.5899
97.5923
97.5947
97.5971
97.5996
97.6021
97.6047
97.6073
97.6099
97.6126
97.6153
97.6323
97.5532
97.5551
97.5571
97.5591
97.5612
97.5632
97.5653
97.5674
97.5696
97.5718
97.574
97.5762
97.5785
97.5808
97.5832
97.5856
97.588
97.5905
97.593
97.5955
97.5981
97.6151
97.5383
97.5402
97.5421
97.544
97.5459
97.5478
97.5498
97.5518
97.5539
97.5559
97.558
97.5602
97.5623
97.5645
97.5668
97.569
97.5713
97.5737
97.576
97.5784
97.5809
97.5979
97.5235
97.5252
97.527
97.5288
97.5306
97.5325
97.5343
97.5362
97.5382
97.5401
97.5421
97.5441
97.5461
97.5482
97.5503
97.5525
97.5546
97.5568
97.5591
97.5614
97.5637
97.5807
97.5086
97.5103
97.5119
97.5136
97.5153
97.5171
97.5188
97.5206
97.5224
97.5243
97.5262
97.528
97.53
97.5319
97.5339
97.5359
97.538
97.54
97.5421
97.5443
97.5465
97.5635
97.4938
97.4953
97.4969
97.4985
97.5001
97.5017
97.5034
97.505
97.5067
97.5085
97.5102
97.512
97.5138
97.5156
97.5175
97.5194
97.5213
97.5232
97.5252
97.5272
97.5292
97.5463
97.479
97.4804
97.4818
97.4833
97.4848
97.4863
97.4879
97.4894
97.491
97.4926
97.4943
97.4959
97.4976
97.4993
97.5011
97.5028
97.5046
97.5064
97.5083
97.5101
97.512
97.529
97.4641
97.4654
97.4668
97.4682
97.4696
97.471
97.4724
97.4739
97.4753
97.4768
97.4783
97.4799
97.4814
97.483
97.4846
97.4863
97.4879
97.4896
97.4913
97.4931
97.4948
97.5118
97.4493
97.4505
97.4518
97.453
97.4543
97.4556
97.4569
97.4583
97.4596
97.461
97.4624
97.4638
97.4653
97.4667
97.4682
97.4697
97.4713
97.4728
97.4744
97.476
97.4776
97.4947
97.4345
97.4356
97.4367
97.4379
97.4391
97.4403
97.4415
97.4427
97.444
97.4452
97.4465
97.4478
97.4491
97.4505
97.4518
97.4532
97.4546
97.456
97.4575
97.459
97.4605
97.4775
97.4196
97.4207
97.4217
97.4228
97.4238
97.4249
97.426
97.4271
97.4283
97.4294
97.4306
97.4318
97.433
97.4342
97.4354
97.4367
97.438
97.4393
97.4406
97.4419
97.4433
97.4603
97.4048
97.4057
97.4067
97.4076
97.4086
97.4096
97.4106
97.4116
97.4126
97.4136
97.4147
97.4157
97.4168
97.4179
97.419
97.4202
97.4213
97.4225
97.4237
97.4249
97.4261
97.4431
97.39
97.3908
97.3916
97.3925
97.3934
97.3942
97.3951
97.396
97.3969
97.3978
97.3988
97.3997
97.4007
97.4016
97.4026
97.4036
97.4047
97.4057
97.4068
97.4078
97.4089
97.4259
97.3752
97.3759
97.3766
97.3774
97.3781
97.3789
97.3796
97.3804
97.3812
97.382
97.3828
97.3837
97.3845
97.3854
97.3862
97.3871
97.388
97.3889
97.3898
97.3908
97.3917
97.4087
97.3604
97.361
97.3616
97.3622
97.3629
97.3635
97.3642
97.3649
97.3655
97.3662
97.3669
97.3676
97.3684
97.3691
97.3698
97.3706
97.3714
97.3721
97.3729
97.3737
97.3746
97.3916
97.3455
97.346
97.3466
97.3471
97.3476
97.3482
97.3487
97.3493
97.3499
97.3504
97.351
97.3516
97.3522
97.3528
97.3534
97.3541
97.3547
97.3554
97.356
97.3567
97.3574
97.3744
97.3307
97.3311
97.3315
97.332
97.3324
97.3328
97.3333
97.3337
97.3342
97.3346
97.3351
97.3356
97.3361
97.3366
97.3371
97.3376
97.3381
97.3386
97.3391
97.3397
97.3402
97.3572
97.3159
97.3162
97.3165
97.3168
97.3172
97.3175
97.3178
97.3182
97.3185
97.3188
97.3192
97.3196
97.3199
97.3203
97.3207
97.321
97.3214
97.3218
97.3222
97.3226
97.323
97.34
97.3011
97.3013
97.3015
97.3017
97.3019
97.3021
97.3024
97.3026
97.3028
97.3031
97.3033
97.3035
97.3038
97.304
97.3043
97.3045
97.3048
97.305
97.3053
97.3056
97.3058
97.3228
97.2863
97.2864
97.2865
97.2866
97.2867
97.2868
97.2869
97.287
97.2871
97.2873
97.2874
97.2875
97.2876
97.2877
97.2879
97.288
97.2881
97.2883
97.2884
97.2885
97.2887
97.3057
97.271
97.271
97.271
97.271
97.271
97.271
97.271
97.271
97.271
97.271
97.271
97.271
97.271
97.271
97.271
97.271
97.271
97.271
97.271
97.271
97.271
97.288
)
;

boundaryField
{
    inlet
    {
        type            calculated;
        value           uniform 0;
    }
    outlet2
    {
        type            calculated;
        value           uniform 0;
    }
    outlet1
    {
        type            calculated;
        value           uniform 0;
    }
    wall
    {
        type            calculated;
        value           uniform 0;
    }
    symmetryBottom
    {
        type            symmetry;
    }
    symmetryZ0
    {
        type            symmetry;
    }
    symmetryZ05
    {
        type            symmetry;
    }
}


// ************************************************************************* //
