/*--------------------------------*- C++ -*----------------------------------*\
| =========                 |                                                 |
| \\      /  F ield         | OpenFOAM: The Open Source CFD Toolbox           |
|  \\    /   O peration     | Version:  2412                                  |
|   \\  /    A nd           | Website:  www.openfoam.com                      |
|    \\/     M anipulation  |                                                 |
\*---------------------------------------------------------------------------*/
FoamFile
{
    version     2.0;
    format      ascii;
    arch        "LSB;label=32;scalar=64";
    class       volScalarField;
    location    "1.68142e-07";
    object      E_dof3;
}
// * * * * * * * * * * * * * * * * * * * * * * * * * * * * * * * * * * * * * //

dimensions      [0 0 0 0 0 0 0];

internalField   nonuniform List<scalar> 
625
(
0.133266
0.131911
0.130106
0.133266
0.131911
0.130107
0.133266
0.131911
0.130107
0.133266
0.131911
0.130107
0.133266
0.131911
0.130107
0.133266
0.131911
0.130107
0.133266
0.131911
0.130107
0.133266
0.131911
0.130107
0.133266
0.131911
0.130107
0.133266
0.131911
0.130107
0.133266
0.131911
0.130107
0.133266
0.131911
0.130107
0.133266
0.131911
0.130107
0.133266
0.131911
0.130107
0.133266
0.131911
0.130107
0.133266
0.131911
0.130107
0.133266
0.131911
0.130107
0.133266
0.131911
0.130107
0.133266
0.131911
0.130107
0.133266
0.131911
0.130107
0.133266
0.131911
0.130107
0.133266
0.131911
0.130107
0.133266
0.131911
0.130107
0.133266
0.131911
0.130107
0.133282
0.131927
0.13191
0.132616
0.132618
0.13262
0.132623
0.132626
0.132628
0.132631
0.132633
0.132636
0.132639
0.132642
0.132644
0.132647
0.13265
0.132653
0.132656
0.132659
0.132662
0.132665
0.132669
0.132672
0.155601
0.13289
0.132895
0.132899
0.132904
0.132908
0.132913
0.132917
0.132922
0.132927
0.132932
0.132937
0.132942
0.132947
0.132952
0.132957
0.132963
0.132968
0.132974
0.132979
0.132985
0.132991
0.155979
0.132883
0.132887
0.132891
0.132896
0.1329
0.132905
0.13291
0.132914
0.132919
0.132924
0.132929
0.132934
0.132939
0.132944
0.132949
0.132954
0.13296
0.132965
0.13297
0.132976
0.132982
0.155969
0.132875
0.132879
0.132884
0.132888
0.132893
0.132897
0.132902
0.132906
0.132911
0.132916
0.13292
0.132925
0.13293
0.132935
0.132941
0.132946
0.132951
0.132956
0.132962
0.132967
0.132973
0.155958
0.132868
0.132872
0.132876
0.13288
0.132885
0.132889
0.132894
0.132898
0.132903
0.132908
0.132912
0.132917
0.132922
0.132927
0.132932
0.132937
0.132942
0.132948
0.132953
0.132959
0.132964
0.155948
0.13286
0.132864
0.132868
0.132873
0.132877
0.132881
0.132886
0.13289
0.132895
0.132899
0.132904
0.132909
0.132914
0.132919
0.132924
0.132929
0.132934
0.132939
0.132944
0.13295
0.132955
0.155937
0.132852
0.132857
0.132861
0.132865
0.132869
0.132873
0.132878
0.132882
0.132887
0.132891
0.132896
0.132901
0.132906
0.13291
0.132915
0.13292
0.132925
0.132931
0.132936
0.132941
0.132947
0.155927
0.132845
0.132849
0.132853
0.132857
0.132861
0.132866
0.13287
0.132874
0.132879
0.132883
0.132888
0.132893
0.132897
0.132902
0.132907
0.132912
0.132917
0.132922
0.132927
0.132932
0.132938
0.155916
0.132837
0.132841
0.132845
0.132849
0.132854
0.132858
0.132862
0.132866
0.132871
0.132875
0.13288
0.132884
0.132889
0.132894
0.132898
0.132903
0.132908
0.132913
0.132918
0.132924
0.132929
0.155906
0.13283
0.132834
0.132838
0.132842
0.132846
0.13285
0.132854
0.132858
0.132863
0.132867
0.132872
0.132876
0.132881
0.132885
0.13289
0.132895
0.1329
0.132905
0.13291
0.132915
0.13292
0.155895
0.132822
0.132826
0.13283
0.132834
0.132838
0.132842
0.132846
0.13285
0.132855
0.132859
0.132863
0.132868
0.132872
0.132877
0.132882
0.132886
0.132891
0.132896
0.132901
0.132906
0.132911
0.155885
0.132814
0.132818
0.132822
0.132826
0.13283
0.132834
0.132838
0.132842
0.132846
0.13285
0.132855
0.132859
0.132864
0.132868
0.132873
0.132877
0.132882
0.132887
0.132892
0.132897
0.132902
0.155874
0.132805
0.132809
0.132813
0.132817
0.13282
0.132824
0.132828
0.132833
0.132837
0.132841
0.132845
0.13285
0.132854
0.132858
0.132863
0.132868
0.132872
0.132877
0.132882
0.132887
0.132892
0.155862
0.132796
0.1328
0.132804
0.132808
0.132811
0.132815
0.132819
0.132823
0.132827
0.132832
0.132836
0.13284
0.132844
0.132849
0.132853
0.132858
0.132862
0.132867
0.132872
0.132877
0.132881
0.15585
0.132787
0.132791
0.132795
0.132799
0.132802
0.132806
0.13281
0.132814
0.132818
0.132822
0.132826
0.13283
0.132835
0.132839
0.132843
0.132848
0.132852
0.132857
0.132862
0.132866
0.132871
0.155837
0.132779
0.132782
0.132786
0.13279
0.132793
0.132797
0.132801
0.132805
0.132809
0.132813
0.132817
0.132821
0.132825
0.132829
0.132834
0.132838
0.132842
0.132847
0.132852
0.132856
0.132861
0.155825
0.13277
0.132773
0.132777
0.13278
0.132784
0.132788
0.132792
0.132795
0.132799
0.132803
0.132807
0.132811
0.132815
0.13282
0.132824
0.132828
0.132833
0.132837
0.132841
0.132846
0.132851
0.155813
0.132761
0.132764
0.132768
0.132771
0.132775
0.132779
0.132782
0.132786
0.13279
0.132794
0.132798
0.132802
0.132806
0.13281
0.132814
0.132818
0.132823
0.132827
0.132831
0.132836
0.13284
0.155801
0.132752
0.132756
0.132759
0.132762
0.132766
0.13277
0.132773
0.132777
0.132781
0.132784
0.132788
0.132792
0.132796
0.1328
0.132804
0.132808
0.132813
0.132817
0.132821
0.132826
0.13283
0.155789
0.132743
0.132747
0.13275
0.132753
0.132757
0.13276
0.132764
0.132768
0.132771
0.132775
0.132779
0.132783
0.132787
0.13279
0.132794
0.132799
0.132803
0.132807
0.132811
0.132816
0.13282
0.155777
0.132734
0.132738
0.132741
0.132744
0.132748
0.132751
0.132755
0.132758
0.132762
0.132766
0.132769
0.132773
0.132777
0.132781
0.132785
0.132789
0.132793
0.132797
0.132801
0.132805
0.13281
0.155764
0.132726
0.132729
0.132732
0.132735
0.132739
0.132742
0.132746
0.132749
0.132753
0.132756
0.13276
0.132763
0.132767
0.132771
0.132775
0.132779
0.132783
0.132787
0.132791
0.132795
0.132799
0.155752
0.132717
0.13272
0.132723
0.132726
0.13273
0.132733
0.132736
0.13274
0.132743
0.132747
0.13275
0.132754
0.132758
0.132761
0.132765
0.132769
0.132773
0.132777
0.132781
0.132785
0.132789
0.15574
0.132708
0.132711
0.132714
0.132717
0.13272
0.132724
0.132727
0.13273
0.132734
0.132737
0.132741
0.132744
0.132748
0.132752
0.132755
0.132759
0.132763
0.132767
0.132771
0.132775
0.132779
0.155728
0.132716
0.132719
0.132722
0.132725
0.132728
0.132732
0.132735
0.132738
0.132742
0.132745
0.132749
0.132753
0.132756
0.13276
0.132764
0.132768
0.132772
0.132775
0.13278
0.132784
0.132788
0.155738
)
;

boundaryField
{
    inlet
    {
        type            calculated;
        value           uniform 0;
    }
    outlet2
    {
        type            calculated;
        value           uniform 0;
    }
    outlet1
    {
        type            calculated;
        value           uniform 0;
    }
    wall
    {
        type            calculated;
        value           uniform 0;
    }
    symmetryBottom
    {
        type            symmetry;
    }
    symmetryZ0
    {
        type            symmetry;
    }
    symmetryZ05
    {
        type            symmetry;
    }
}


// ************************************************************************* //
