/*--------------------------------*- C++ -*----------------------------------*\
| =========                 |                                                 |
| \\      /  F ield         | OpenFOAM: The Open Source CFD Toolbox           |
|  \\    /   O peration     | Version:  2412                                  |
|   \\  /    A nd           | Website:  www.openfoam.com                      |
|    \\/     M anipulation  |                                                 |
\*---------------------------------------------------------------------------*/
FoamFile
{
    version     2.0;
    format      ascii;
    arch        "LSB;label=32;scalar=64";
    class       volScalarField;
    location    "1.68142e-07";
    object      E_dof2;
}
// * * * * * * * * * * * * * * * * * * * * * * * * * * * * * * * * * * * * * //

dimensions      [0 0 0 0 0 0 0];

internalField   nonuniform List<scalar> 
625
(
0.00067458
0.00166452
-8.87276e-07
-0.000141793
0.000853643
-6.19469e-06
-5.29303e-05
0.000942496
-6.19362e-06
-5.29303e-05
0.000942496
-6.19362e-06
-5.29303e-05
0.000942496
-6.19362e-06
-5.29303e-05
0.000942496
-6.19362e-06
-5.29303e-05
0.000942496
-6.19362e-06
-5.29303e-05
0.000942496
-6.19362e-06
-5.29303e-05
0.000942496
-6.19362e-06
-5.29303e-05
0.000942496
-6.19362e-06
-5.29303e-05
0.000942496
-6.19362e-06
-5.29303e-05
0.000942496
-6.19362e-06
-5.29303e-05
0.000942496
-6.19362e-06
-5.29303e-05
0.000942496
-6.19362e-06
-5.29303e-05
0.000942496
-6.19362e-06
-5.29303e-05
0.000942496
-6.19362e-06
-5.29303e-05
0.000942496
-6.19362e-06
-5.29303e-05
0.000942496
-6.19362e-06
-5.29303e-05
0.000942496
-6.19362e-06
-5.29303e-05
0.000942496
-6.19362e-06
-5.29303e-05
0.000942496
-6.19362e-06
-5.29303e-05
0.000942496
-6.19362e-06
-5.29303e-05
0.000942496
-6.19362e-06
-5.29303e-05
0.000942496
-6.19362e-06
-0.000555944
-0.000550376
-0.000553032
1.19675
1.20501
1.21339
1.22188
1.2305
1.23923
1.24809
1.25708
1.2662
1.27545
1.28484
1.29437
1.30404
1.31386
1.32382
1.33394
1.34421
1.35464
1.36524
1.376
1.38694
1.87293e-06
-0.0212202
-0.0213799
-0.021542
-0.0217066
-0.0218737
-0.0220433
-0.0222156
-0.0223906
-0.0225683
-0.0227489
-0.0229324
-0.0231188
-0.0233083
-0.0235008
-0.0236965
-0.0238955
-0.0240979
-0.0243037
-0.024513
-0.0247259
-0.0249425
-6.17199e-06
-0.0199816
-0.0201233
-0.020267
-0.0204127
-0.0205606
-0.0207106
-0.0208628
-0.0210172
-0.021174
-0.0213331
-0.0214947
-0.0216587
-0.0218252
-0.0219943
-0.022166
-0.0223404
-0.0225176
-0.0226977
-0.0228806
-0.0230665
-0.0232554
-6.17176e-06
-0.0200684
-0.0202104
-0.0203544
-0.0205005
-0.0206487
-0.0207991
-0.0209516
-0.0211065
-0.0212636
-0.021423
-0.0215849
-0.0217493
-0.0219161
-0.0220856
-0.0222577
-0.0224325
-0.02261
-0.0227904
-0.0229737
-0.0231599
-0.0233492
-6.17174e-06
-0.0201569
-0.0202992
-0.0204436
-0.0205901
-0.0207387
-0.0208894
-0.0210423
-0.0211975
-0.021355
-0.0215149
-0.0216771
-0.0218419
-0.0220091
-0.0221789
-0.0223514
-0.0225266
-0.0227045
-0.0228853
-0.023069
-0.0232556
-0.0234453
-6.17173e-06
-0.020247
-0.0203898
-0.0205346
-0.0206814
-0.0208304
-0.0209815
-0.0211349
-0.0212905
-0.0214484
-0.0216086
-0.0217713
-0.0219364
-0.0221041
-0.0222744
-0.0224472
-0.0226228
-0.0228012
-0.0229824
-0.0231665
-0.0233535
-0.0235436
-6.17171e-06
-0.0203389
-0.0204821
-0.0206273
-0.0207745
-0.0209239
-0.0210755
-0.0212293
-0.0213853
-0.0215436
-0.0217043
-0.0218674
-0.022033
-0.0222011
-0.0223718
-0.0225451
-0.0227212
-0.0229
-0.0230816
-0.0232662
-0.0234537
-0.0236443
-6.1717e-06
-0.0204324
-0.020576
-0.0207217
-0.0208694
-0.0210192
-0.0211713
-0.0213255
-0.021482
-0.0216408
-0.0218019
-0.0219655
-0.0221315
-0.0223001
-0.0224713
-0.0226451
-0.0228216
-0.0230009
-0.023183
-0.0233681
-0.0235561
-0.0237472
-6.17168e-06
-0.0205277
-0.0206718
-0.0208179
-0.0209661
-0.0211164
-0.0212688
-0.0214236
-0.0215805
-0.0217398
-0.0219015
-0.0220655
-0.0222321
-0.0224012
-0.0225728
-0.0227471
-0.0229242
-0.023104
-0.0232866
-0.0234722
-0.0236607
-0.0238523
-6.17167e-06
-0.0206246
-0.0207692
-0.0209158
-0.0210645
-0.0212153
-0.0213683
-0.0215235
-0.0216809
-0.0218407
-0.0220029
-0.0221675
-0.0223346
-0.0225042
-0.0226764
-0.0228512
-0.0230288
-0.0232092
-0.0233924
-0.0235785
-0.0237676
-0.0239598
-6.17165e-06
-0.0207233
-0.0208683
-0.0210154
-0.0211646
-0.021316
-0.0214695
-0.0216252
-0.0217832
-0.0219436
-0.0221063
-0.0222714
-0.0224391
-0.0226092
-0.022782
-0.0229574
-0.0231356
-0.0233165
-0.0235003
-0.023687
-0.0238767
-0.0240695
-6.17164e-06
-0.0207996
-0.020945
-0.0210925
-0.0212421
-0.0213938
-0.0215477
-0.0217038
-0.0218622
-0.022023
-0.0221861
-0.0223516
-0.0225196
-0.0226902
-0.0228634
-0.0230392
-0.0232178
-0.0233991
-0.0235834
-0.0237705
-0.0239606
-0.0241538
-6.20301e-06
-0.0208427
-0.0209883
-0.0211359
-0.0212856
-0.0214374
-0.0215915
-0.0217478
-0.0219063
-0.0220672
-0.0222305
-0.0223961
-0.0225643
-0.0227351
-0.0229084
-0.0230844
-0.0232631
-0.0234446
-0.0236289
-0.0238162
-0.0240065
-0.0241998
-6.27937e-06
-0.0208862
-0.0210319
-0.0211797
-0.0213296
-0.0214816
-0.0216358
-0.0217922
-0.0219509
-0.0221119
-0.0222754
-0.0224412
-0.0226095
-0.0227804
-0.0229539
-0.02313
-0.0233089
-0.0234906
-0.0236751
-0.0238625
-0.0240529
-0.0242464
-6.35565e-06
-0.0209304
-0.0210763
-0.0212242
-0.0213743
-0.0215265
-0.0216808
-0.0218374
-0.0219963
-0.0221575
-0.0223211
-0.0224871
-0.0226556
-0.0228267
-0.0230003
-0.0231766
-0.0233557
-0.0235375
-0.0237222
-0.0239098
-0.0241004
-0.024294
-6.43204e-06
-0.0209753
-0.0211214
-0.0212695
-0.0214197
-0.0215721
-0.0217267
-0.0218834
-0.0220425
-0.0222039
-0.0223677
-0.0225338
-0.0227025
-0.0228738
-0.0230476
-0.0232241
-0.0234033
-0.0235853
-0.0237702
-0.023958
-0.0241487
-0.0243426
-6.50854e-06
-0.0210209
-0.0211672
-0.0213156
-0.021466
-0.0216185
-0.0217733
-0.0219302
-0.0220895
-0.0222511
-0.022415
-0.0225814
-0.0227503
-0.0229217
-0.0230958
-0.0232725
-0.0234519
-0.0236341
-0.0238192
-0.0240071
-0.0241981
-0.0243921
-6.58513e-06
-0.0210673
-0.0212138
-0.0213623
-0.0215129
-0.0216657
-0.0218206
-0.0219778
-0.0221373
-0.022299
-0.0224632
-0.0226298
-0.0227989
-0.0229706
-0.0231448
-0.0233217
-0.0235013
-0.0236838
-0.023869
-0.0240572
-0.0242484
-0.0244427
-6.6618e-06
-0.0211143
-0.021261
-0.0214098
-0.0215606
-0.0217136
-0.0218688
-0.0220261
-0.0221858
-0.0223478
-0.0225122
-0.022679
-0.0228484
-0.0230202
-0.0231947
-0.0233718
-0.0235517
-0.0237344
-0.0239199
-0.0241083
-0.0242997
-0.0244942
-6.73855e-06
-0.0211621
-0.021309
-0.021458
-0.021609
-0.0217622
-0.0219176
-0.0220753
-0.0222352
-0.0223974
-0.022562
-0.0227291
-0.0228986
-0.0230708
-0.0232455
-0.0234228
-0.023603
-0.0237858
-0.0239716
-0.0241603
-0.024352
-0.0245467
-6.81535e-06
-0.0212106
-0.0213577
-0.0215069
-0.0216582
-0.0218116
-0.0219673
-0.0221251
-0.0222853
-0.0224478
-0.0226126
-0.02278
-0.0229498
-0.0231221
-0.0232971
-0.0234747
-0.0236551
-0.0238383
-0.0240243
-0.0242132
-0.0244052
-0.0246002
-6.89221e-06
-0.0212597
-0.0214071
-0.0215565
-0.0217081
-0.0218618
-0.0220176
-0.0221758
-0.0223362
-0.0224989
-0.0226641
-0.0228316
-0.0230017
-0.0231743
-0.0233496
-0.0235275
-0.0237081
-0.0238915
-0.0240779
-0.0242671
-0.0244593
-0.0246546
-6.96911e-06
-0.0213095
-0.0214572
-0.0216069
-0.0217587
-0.0219126
-0.0220688
-0.0222272
-0.0223878
-0.0225509
-0.0227163
-0.0228841
-0.0230545
-0.0232274
-0.0234029
-0.0235811
-0.023762
-0.0239457
-0.0241323
-0.0243219
-0.0245144
-0.02471
-7.04604e-06
-0.0213601
-0.021508
-0.0216579
-0.02181
-0.0219642
-0.0221207
-0.0222793
-0.0224403
-0.0226036
-0.0227693
-0.0229374
-0.0231081
-0.0232813
-0.0234571
-0.0236356
-0.0238168
-0.0240009
-0.0241877
-0.0243776
-0.0245704
-0.0247663
-7.123e-06
-0.0227397
-0.0228968
-0.0230561
-0.0232176
-0.0233814
-0.0235475
-0.023716
-0.023887
-0.0240604
-0.0242363
-0.0244149
-0.0245961
-0.02478
-0.0249667
-0.0251562
-0.0253486
-0.025544
-0.0257424
-0.0259439
-0.0261486
-0.0263566
-8.22846e-06
)
;

boundaryField
{
    inlet
    {
        type            calculated;
        value           uniform 0;
    }
    outlet2
    {
        type            calculated;
        value           uniform 0;
    }
    outlet1
    {
        type            calculated;
        value           uniform 0;
    }
    wall
    {
        type            calculated;
        value           uniform 0;
    }
    symmetryBottom
    {
        type            symmetry;
    }
    symmetryZ0
    {
        type            symmetry;
    }
    symmetryZ05
    {
        type            symmetry;
    }
}


// ************************************************************************* //
