/*--------------------------------*- C++ -*----------------------------------*\
| =========                 |                                                 |
| \\      /  F ield         | OpenFOAM: The Open Source CFD Toolbox           |
|  \\    /   O peration     | Version:  2412                                  |
|   \\  /    A nd           | Website:  www.openfoam.com                      |
|    \\/     M anipulation  |                                                 |
\*---------------------------------------------------------------------------*/
FoamFile
{
    version     2.0;
    format      ascii;
    arch        "LSB;label=32;scalar=64";
    class       volScalarField;
    location    "1.68142e-07";
    object      E_dof1;
}
// * * * * * * * * * * * * * * * * * * * * * * * * * * * * * * * * * * * * * //

dimensions      [0 0 0 0 0 0 0];

internalField   nonuniform List<scalar> 
625
(
7.94321
-6.8803e-11
-0.00166719
7.94322
-7.46579e-11
-0.00085983
7.94322
-7.46596e-11
-0.000948686
7.94322
-7.46573e-11
-0.000948686
7.94322
-7.46573e-11
-0.000948686
7.94322
-7.46585e-11
-0.000948686
7.94322
-7.46577e-11
-0.000948686
7.94322
-7.46585e-11
-0.000948686
7.94322
-7.46578e-11
-0.000948686
7.94322
-7.46574e-11
-0.000948686
7.94322
-7.46575e-11
-0.000948686
7.94322
-7.46583e-11
-0.000948686
7.94322
-7.4657e-11
-0.000948686
7.94322
-7.46584e-11
-0.000948686
7.94322
-7.46591e-11
-0.000948686
7.94322
-7.46587e-11
-0.000948686
7.94322
-7.46614e-11
-0.000948686
7.94322
-7.46563e-11
-0.000948686
7.94322
-7.46585e-11
-0.000948686
7.94322
-7.46582e-11
-0.000948686
7.94322
-7.46568e-11
-0.000948686
7.94322
-7.46591e-11
-0.000948686
7.94322
-7.4656e-11
-0.000948686
7.94322
-7.46596e-11
-0.000948686
7.94421
-7.46744e-11
-1.65022e-05
-0.0219354
-0.0220869
-0.0222405
-0.0223963
-0.0225543
-0.0227145
-0.022877
-0.0230418
-0.023209
-0.0233787
-0.0235509
-0.0237256
-0.023903
-0.024083
-0.0242657
-0.0244513
-0.0246397
-0.024831
-0.0250253
-0.0252227
-0.0254232
-1.38703
-0.0219814
-0.0221335
-0.0222878
-0.0224442
-0.0226029
-0.0227638
-0.022927
-0.0230925
-0.0232605
-0.023431
-0.0236039
-0.0237794
-0.0239576
-0.0241384
-0.024322
-0.0245084
-0.0246977
-0.0248899
-0.0250852
-0.0252835
-0.025485
0.024973
-0.0219801
-0.0221323
-0.0222865
-0.0224429
-0.0226015
-0.0227624
-0.0229256
-0.0230911
-0.0232591
-0.0234295
-0.0236024
-0.0237779
-0.0239561
-0.0241369
-0.0243205
-0.0245068
-0.0246961
-0.0248883
-0.0250835
-0.0252818
-0.0254833
0.0232849
-0.0219789
-0.022131
-0.0222852
-0.0224416
-0.0226002
-0.022761
-0.0229242
-0.0230897
-0.0232577
-0.0234281
-0.023601
-0.0237765
-0.0239545
-0.0241354
-0.0243189
-0.0245053
-0.0246945
-0.0248867
-0.0250819
-0.0252802
-0.0254816
0.0233775
-0.0219776
-0.0221297
-0.0222839
-0.0224403
-0.0225988
-0.0227597
-0.0229228
-0.0230883
-0.0232562
-0.0234266
-0.0235995
-0.023775
-0.0239531
-0.0241338
-0.0243173
-0.0245037
-0.0246929
-0.024885
-0.0250802
-0.0252785
-0.0254799
0.0234724
-0.0219763
-0.0221284
-0.0222826
-0.0224389
-0.0225975
-0.0227583
-0.0229215
-0.0230869
-0.0232548
-0.0234252
-0.023598
-0.0237735
-0.0239515
-0.0241323
-0.0243158
-0.0245021
-0.0246913
-0.0248834
-0.0250786
-0.0252768
-0.0254782
0.0235697
-0.0219751
-0.0221271
-0.0222813
-0.0224376
-0.0225962
-0.022757
-0.0229201
-0.0230855
-0.0232534
-0.0234237
-0.0235966
-0.023772
-0.02395
-0.0241307
-0.0243142
-0.0245005
-0.0246897
-0.0248818
-0.0250769
-0.0252751
-0.0254765
0.0236691
-0.0219738
-0.0221258
-0.02228
-0.0224363
-0.0225948
-0.0227556
-0.0229187
-0.0230841
-0.023252
-0.0234223
-0.0235951
-0.0237705
-0.0239485
-0.0241292
-0.0243127
-0.0244989
-0.0246881
-0.0248801
-0.0250753
-0.0252734
-0.0254748
0.0237709
-0.0219725
-0.0221245
-0.0222787
-0.022435
-0.0225935
-0.0227542
-0.0229173
-0.0230827
-0.0232506
-0.0234209
-0.0235936
-0.023769
-0.023947
-0.0241277
-0.0243111
-0.0244974
-0.0246865
-0.0248785
-0.0250736
-0.0252717
-0.0254731
0.0238749
-0.0219712
-0.0221232
-0.0222774
-0.0224336
-0.0225921
-0.0227529
-0.0229159
-0.0230813
-0.0232491
-0.0234194
-0.0235922
-0.0237675
-0.0239455
-0.0241262
-0.0243096
-0.0244958
-0.0246849
-0.0248769
-0.0250719
-0.0252701
-0.0254713
0.0239812
-0.02197
-0.022122
-0.022276
-0.0224323
-0.0225908
-0.0227515
-0.0229145
-0.0230799
-0.0232477
-0.023418
-0.0235907
-0.023766
-0.023944
-0.0241246
-0.024308
-0.0244942
-0.0246833
-0.0248753
-0.0250703
-0.0252684
-0.0254696
0.0240898
-0.0219686
-0.0221206
-0.0222747
-0.0224309
-0.0225894
-0.0227501
-0.0229131
-0.0230784
-0.0232462
-0.0234164
-0.0235892
-0.0237645
-0.0239424
-0.024123
-0.0243063
-0.0244925
-0.0246815
-0.0248735
-0.0250685
-0.0252666
-0.0254678
0.0241731
-0.0219671
-0.0221191
-0.0222731
-0.0224294
-0.0225878
-0.0227485
-0.0229115
-0.0230768
-0.0232445
-0.0234148
-0.0235874
-0.0237627
-0.0239406
-0.0241212
-0.0243045
-0.0244907
-0.0246797
-0.0248716
-0.0250666
-0.0252646
-0.0254658
0.0242181
-0.0219657
-0.0221176
-0.0222716
-0.0224278
-0.0225862
-0.0227469
-0.0229099
-0.0230752
-0.0232429
-0.0234131
-0.0235858
-0.023761
-0.0239389
-0.0241194
-0.0243027
-0.0244888
-0.0246778
-0.0248698
-0.0250647
-0.0252627
-0.0254638
0.0242634
-0.0219642
-0.0221161
-0.0222701
-0.0224263
-0.0225847
-0.0227453
-0.0229083
-0.0230735
-0.0232412
-0.0234114
-0.0235841
-0.0237593
-0.0239371
-0.0241177
-0.0243009
-0.024487
-0.024676
-0.0248679
-0.0250628
-0.0252607
-0.0254619
0.0243098
-0.0219627
-0.0221146
-0.0222686
-0.0224247
-0.0225831
-0.0227437
-0.0229066
-0.0230719
-0.0232396
-0.0234097
-0.0235823
-0.0237575
-0.0239354
-0.0241159
-0.0242991
-0.0244852
-0.0246741
-0.024866
-0.0250608
-0.0252588
-0.0254599
0.024357
-0.0219612
-0.0221131
-0.0222671
-0.0224232
-0.0225816
-0.0227421
-0.022905
-0.0230703
-0.0232379
-0.023408
-0.0235806
-0.0237558
-0.0239336
-0.0241141
-0.0242973
-0.0244833
-0.0246722
-0.0248641
-0.0250589
-0.0252568
-0.0254579
0.0244053
-0.0219598
-0.0221116
-0.0222655
-0.0224217
-0.02258
-0.0227406
-0.0229034
-0.0230687
-0.0232363
-0.0234064
-0.0235789
-0.0237541
-0.0239319
-0.0241123
-0.0242955
-0.0244815
-0.0246704
-0.0248622
-0.025057
-0.0252549
-0.0254559
0.0244546
-0.0219583
-0.0221101
-0.022264
-0.0224201
-0.0225784
-0.022739
-0.0229018
-0.023067
-0.0232346
-0.0234047
-0.0235772
-0.0237524
-0.0239301
-0.0241105
-0.0242937
-0.0244797
-0.0246685
-0.0248603
-0.0250551
-0.0252529
-0.0254539
0.0245049
-0.0219568
-0.0221086
-0.0222625
-0.0224186
-0.0225769
-0.0227374
-0.0229002
-0.0230654
-0.023233
-0.023403
-0.0235755
-0.0237506
-0.0239284
-0.0241087
-0.0242919
-0.0244778
-0.0246666
-0.0248584
-0.0250531
-0.025251
-0.0254519
0.0245561
-0.0219553
-0.0221071
-0.022261
-0.022417
-0.0225753
-0.0227358
-0.0228986
-0.0230638
-0.0232313
-0.0234013
-0.0235738
-0.0237489
-0.0239266
-0.024107
-0.0242901
-0.024476
-0.0246648
-0.0248565
-0.0250512
-0.025249
-0.0254499
0.0246083
-0.0219538
-0.0221056
-0.0222595
-0.0224155
-0.0225737
-0.0227342
-0.022897
-0.0230621
-0.0232296
-0.0233996
-0.0235721
-0.0237472
-0.0239248
-0.0241052
-0.0242883
-0.0244741
-0.0246629
-0.0248546
-0.0250493
-0.025247
-0.025448
0.0246614
-0.0219524
-0.0221041
-0.022258
-0.0224139
-0.0225722
-0.0227326
-0.0228954
-0.0230605
-0.023228
-0.0233979
-0.0235704
-0.0237454
-0.0239231
-0.0241034
-0.0242864
-0.0244723
-0.024661
-0.0248527
-0.0250473
-0.0252451
-0.025446
0.0247155
-0.0219509
-0.0221026
-0.0222564
-0.0224124
-0.0225706
-0.022731
-0.0228938
-0.0230589
-0.0232263
-0.0233963
-0.0235687
-0.0237437
-0.0239213
-0.0241016
-0.0242846
-0.0244705
-0.0246592
-0.0248508
-0.0250454
-0.0252431
-0.025444
0.0247706
-0.0219522
-0.0221039
-0.0222577
-0.0224137
-0.0225719
-0.0227324
-0.0228952
-0.0230603
-0.0232278
-0.0233977
-0.0235702
-0.0237452
-0.0239228
-0.0241031
-0.0242862
-0.0244721
-0.0246608
-0.0248524
-0.0250471
-0.0252448
-0.0254457
0.0263491
)
;

boundaryField
{
    inlet
    {
        type            calculated;
        value           uniform 0;
    }
    outlet2
    {
        type            calculated;
        value           uniform 0;
    }
    outlet1
    {
        type            calculated;
        value           uniform 0;
    }
    wall
    {
        type            calculated;
        value           uniform 0;
    }
    symmetryBottom
    {
        type            symmetry;
    }
    symmetryZ0
    {
        type            symmetry;
    }
    symmetryZ05
    {
        type            symmetry;
    }
}


// ************************************************************************* //
