/*--------------------------------*- C++ -*----------------------------------*\
| =========                 |                                                 |
| \\      /  F ield         | OpenFOAM: The Open Source CFD Toolbox           |
|  \\    /   O peration     | Version:  2412                                  |
|   \\  /    A nd           | Website:  www.openfoam.com                      |
|    \\/     M anipulation  |                                                 |
\*---------------------------------------------------------------------------*/
FoamFile
{
    version     2.0;
    format      ascii;
    arch        "LSB;label=32;scalar=64";
    class       volScalarField;
    location    "1.68142e-07";
    object      E_dof0;
}
// * * * * * * * * * * * * * * * * * * * * * * * * * * * * * * * * * * * * * //

dimensions      [0 0 0 0 0 0 0];

internalField   nonuniform List<scalar> 
625
(
99.466
96.7821
96.7821
99.4662
96.7823
96.7823
99.4662
96.7823
96.7823
99.4662
96.7823
96.7823
99.4662
96.7823
96.7823
99.4662
96.7823
96.7823
99.4662
96.7823
96.7823
99.4662
96.7823
96.7823
99.4662
96.7823
96.7823
99.4662
96.7823
96.7823
99.4662
96.7823
96.7823
99.4662
96.7823
96.7823
99.4662
96.7823
96.7823
99.4662
96.7823
96.7823
99.4662
96.7823
96.7823
99.4662
96.7823
96.7823
99.4662
96.7823
96.7823
99.4662
96.7823
96.7823
99.4662
96.7823
96.7823
99.4662
96.7823
96.7823
99.4662
96.7823
96.7823
99.4662
96.7823
96.7823
99.4662
96.7823
96.7823
99.4662
96.7823
96.7823
99.466
96.7818
96.7818
97.2219
97.2216
97.2213
97.2209
97.2206
97.2202
97.2198
97.2195
97.2191
97.2187
97.2184
97.218
97.2176
97.2172
97.2168
97.2164
97.2159
97.2155
97.2151
97.2146
97.2142
97.2314
97.613
97.6154
97.6178
97.6203
97.6227
97.6252
97.6278
97.6303
97.633
97.6356
97.6383
97.641
97.6438
97.6466
97.6495
97.6524
97.6553
97.6583
97.6614
97.6644
97.6676
97.6848
97.5978
97.6
97.6023
97.6046
97.607
97.6094
97.6118
97.6143
97.6167
97.6193
97.6218
97.6244
97.6271
97.6298
97.6325
97.6353
97.6381
97.6409
97.6438
97.6468
97.6498
97.667
97.5829
97.5851
97.5873
97.5895
97.5917
97.594
97.5963
97.5987
97.601
97.6034
97.6059
97.6084
97.6109
97.6135
97.6161
97.6187
97.6214
97.6241
97.6269
97.6297
97.6325
97.6497
97.5681
97.5701
97.5722
97.5743
97.5764
97.5786
97.5808
97.5831
97.5853
97.5876
97.59
97.5923
97.5947
97.5972
97.5996
97.6022
97.6047
97.6073
97.6099
97.6126
97.6153
97.6325
97.5532
97.5552
97.5571
97.5591
97.5612
97.5632
97.5653
97.5675
97.5696
97.5718
97.574
97.5763
97.5785
97.5809
97.5832
97.5856
97.588
97.5905
97.593
97.5955
97.5981
97.6153
97.5384
97.5402
97.5421
97.544
97.5459
97.5479
97.5498
97.5519
97.5539
97.556
97.5581
97.5602
97.5624
97.5646
97.5668
97.5691
97.5713
97.5737
97.5761
97.5785
97.5809
97.5981
97.5235
97.5253
97.527
97.5288
97.5306
97.5325
97.5344
97.5363
97.5382
97.5401
97.5421
97.5441
97.5462
97.5483
97.5504
97.5525
97.5547
97.5569
97.5591
97.5614
97.5637
97.5809
97.5087
97.5103
97.512
97.5137
97.5154
97.5171
97.5189
97.5207
97.5225
97.5243
97.5262
97.5281
97.53
97.532
97.5339
97.5359
97.538
97.5401
97.5422
97.5443
97.5465
97.5637
97.4938
97.4954
97.4969
97.4985
97.5001
97.5017
97.5034
97.5051
97.5068
97.5085
97.5102
97.512
97.5138
97.5156
97.5175
97.5194
97.5213
97.5233
97.5252
97.5272
97.5293
97.5465
97.479
97.4804
97.4819
97.4833
97.4848
97.4864
97.4879
97.4895
97.4911
97.4927
97.4943
97.496
97.4976
97.4993
97.5011
97.5028
97.5046
97.5064
97.5083
97.5102
97.5121
97.5292
97.4641
97.4655
97.4668
97.4682
97.4696
97.471
97.4724
97.4739
97.4754
97.4769
97.4784
97.4799
97.4815
97.4831
97.4847
97.4863
97.488
97.4896
97.4914
97.4931
97.4949
97.512
97.4493
97.4505
97.4518
97.4531
97.4543
97.4556
97.457
97.4583
97.4597
97.461
97.4624
97.4639
97.4653
97.4668
97.4683
97.4698
97.4713
97.4729
97.4744
97.476
97.4777
97.4949
97.4345
97.4356
97.4368
97.4379
97.4391
97.4403
97.4415
97.4427
97.444
97.4452
97.4465
97.4478
97.4492
97.4505
97.4519
97.4532
97.4546
97.4561
97.4575
97.459
97.4605
97.4777
97.4197
97.4207
97.4217
97.4228
97.4239
97.4249
97.426
97.4272
97.4283
97.4294
97.4306
97.4318
97.433
97.4342
97.4355
97.4367
97.438
97.4393
97.4406
97.4419
97.4433
97.4605
97.4048
97.4058
97.4067
97.4077
97.4086
97.4096
97.4106
97.4116
97.4126
97.4136
97.4147
97.4158
97.4168
97.4179
97.4191
97.4202
97.4213
97.4225
97.4237
97.4249
97.4261
97.4433
97.39
97.3908
97.3917
97.3925
97.3934
97.3942
97.3951
97.396
97.3969
97.3979
97.3988
97.3997
97.4007
97.4017
97.4027
97.4037
97.4047
97.4057
97.4068
97.4079
97.4089
97.4261
97.3752
97.3759
97.3766
97.3774
97.3781
97.3789
97.3797
97.3805
97.3812
97.3821
97.3829
97.3837
97.3845
97.3854
97.3863
97.3871
97.388
97.389
97.3899
97.3908
97.3918
97.4089
97.3604
97.361
97.3616
97.3623
97.3629
97.3636
97.3642
97.3649
97.3656
97.3663
97.367
97.3677
97.3684
97.3691
97.3699
97.3706
97.3714
97.3722
97.373
97.3738
97.3746
97.3918
97.3456
97.3461
97.3466
97.3471
97.3477
97.3482
97.3488
97.3493
97.3499
97.3505
97.351
97.3516
97.3522
97.3529
97.3535
97.3541
97.3547
97.3554
97.3561
97.3567
97.3574
97.3746
97.3307
97.3312
97.3316
97.332
97.3324
97.3329
97.3333
97.3338
97.3342
97.3347
97.3351
97.3356
97.3361
97.3366
97.3371
97.3376
97.3381
97.3386
97.3391
97.3397
97.3402
97.3574
97.3159
97.3162
97.3165
97.3169
97.3172
97.3175
97.3178
97.3182
97.3185
97.3189
97.3192
97.3196
97.3199
97.3203
97.3207
97.3211
97.3215
97.3218
97.3222
97.3226
97.3231
97.3402
97.3011
97.3013
97.3015
97.3017
97.302
97.3022
97.3024
97.3026
97.3029
97.3031
97.3033
97.3036
97.3038
97.304
97.3043
97.3046
97.3048
97.3051
97.3053
97.3056
97.3059
97.323
97.2863
97.2864
97.2865
97.2866
97.2867
97.2868
97.2869
97.2871
97.2872
97.2873
97.2874
97.2875
97.2877
97.2878
97.2879
97.288
97.2882
97.2883
97.2884
97.2886
97.2887
97.3059
97.271
97.271
97.271
97.271
97.271
97.271
97.271
97.271
97.271
97.271
97.271
97.271
97.271
97.271
97.271
97.271
97.271
97.271
97.271
97.271
97.271
97.2882
)
;

boundaryField
{
    inlet
    {
        type            calculated;
        value           uniform 99.44;
    }
    outlet2
    {
        type            calculated;
        value           uniform 99.44;
    }
    outlet1
    {
        type            calculated;
        value           uniform 99.44;
    }
    wall
    {
        type            calculated;
        value           uniform 99.44;
    }
    symmetryBottom
    {
        type            symmetry;
    }
    symmetryZ0
    {
        type            symmetry;
    }
    symmetryZ05
    {
        type            symmetry;
    }
}


// ************************************************************************* //
