/*--------------------------------*- C++ -*----------------------------------*\
| =========                 |                                                 |
| \\      /  F ield         | OpenFOAM: The Open Source CFD Toolbox           |
|  \\    /   O peration     | Version:  2412                                  |
|   \\  /    A nd           | Website:  www.openfoam.com                      |
|    \\/     M anipulation  |                                                 |
\*---------------------------------------------------------------------------*/
FoamFile
{
    version     2.0;
    format      ascii;
    arch        "LSB;label=32;scalar=64";
    class       volScalarField;
    location    "1.68142e-07";
    object      p;
}
// * * * * * * * * * * * * * * * * * * * * * * * * * * * * * * * * * * * * * //

dimensions      [0 0 0 0 0 0 0];

internalField   nonuniform List<scalar> 
625
(
0.933086
0.903393
0.903393
0.933087
0.903395
0.903395
0.933087
0.903394
0.903394
0.933087
0.903394
0.903394
0.933087
0.903394
0.903394
0.933087
0.903394
0.903394
0.933087
0.903394
0.903394
0.933087
0.903394
0.903394
0.933087
0.903394
0.903394
0.933087
0.903394
0.903394
0.933087
0.903394
0.903394
0.933087
0.903394
0.903394
0.933087
0.903394
0.903394
0.933087
0.903394
0.903394
0.933087
0.903394
0.903394
0.933087
0.903394
0.903394
0.933087
0.903394
0.903394
0.933087
0.903394
0.903394
0.933087
0.903394
0.903394
0.933087
0.903394
0.903394
0.933087
0.903394
0.903394
0.933087
0.903394
0.903394
0.933087
0.903394
0.903394
0.933087
0.903394
0.903394
0.933087
0.903391
0.903391
0.932947
0.93312
0.933294
0.933472
0.933651
0.933834
0.934019
0.934207
0.934397
0.934591
0.934787
0.934987
0.935189
0.935395
0.935603
0.935815
0.936031
0.936249
0.936472
0.936698
0.936927
0.937108
0.912097
0.912122
0.912147
0.912172
0.912198
0.912224
0.91225
0.912277
0.912304
0.912331
0.912359
0.912387
0.912416
0.912445
0.912475
0.912505
0.912535
0.912566
0.912598
0.91263
0.912662
0.912842
0.911958
0.911981
0.912006
0.91203
0.912055
0.91208
0.912105
0.912131
0.912157
0.912184
0.912211
0.912238
0.912266
0.912294
0.912323
0.912352
0.912381
0.912411
0.912442
0.912472
0.912504
0.912683
0.911802
0.911824
0.911847
0.911871
0.911894
0.911918
0.911942
0.911967
0.911992
0.912017
0.912043
0.912069
0.912096
0.912123
0.91215
0.912178
0.912206
0.912234
0.912263
0.912293
0.912323
0.912502
0.911646
0.911667
0.911689
0.911711
0.911734
0.911757
0.91178
0.911803
0.911827
0.911851
0.911876
0.9119
0.911926
0.911951
0.911977
0.912004
0.912031
0.912058
0.912085
0.912114
0.912142
0.912321
0.91149
0.91151
0.911531
0.911552
0.911573
0.911595
0.911617
0.911639
0.911662
0.911685
0.911708
0.911732
0.911756
0.91178
0.911805
0.91183
0.911855
0.911881
0.911907
0.911934
0.911961
0.91214
0.911334
0.911353
0.911373
0.911393
0.911413
0.911434
0.911454
0.911475
0.911497
0.911519
0.911541
0.911563
0.911586
0.911609
0.911632
0.911656
0.91168
0.911705
0.911729
0.911755
0.91178
0.91196
0.911178
0.911196
0.911215
0.911234
0.911253
0.911272
0.911292
0.911312
0.911332
0.911352
0.911373
0.911394
0.911416
0.911437
0.91146
0.911482
0.911505
0.911528
0.911551
0.911575
0.9116
0.911779
0.911022
0.911039
0.911057
0.911074
0.911092
0.91111
0.911129
0.911148
0.911167
0.911186
0.911206
0.911226
0.911246
0.911266
0.911287
0.911308
0.91133
0.911351
0.911373
0.911396
0.911419
0.911598
0.910866
0.910882
0.910898
0.910915
0.910932
0.910949
0.910966
0.910984
0.911002
0.91102
0.911038
0.911057
0.911076
0.911095
0.911114
0.911134
0.911154
0.911175
0.911195
0.911217
0.911238
0.911417
0.91071
0.910725
0.91074
0.910756
0.910771
0.910787
0.910804
0.91082
0.910837
0.910854
0.910871
0.910888
0.910906
0.910924
0.910942
0.91096
0.910979
0.910998
0.911018
0.911037
0.911057
0.911236
0.910554
0.910568
0.910582
0.910597
0.910611
0.910626
0.910641
0.910656
0.910672
0.910687
0.910703
0.91072
0.910736
0.910753
0.910769
0.910787
0.910804
0.910822
0.91084
0.910858
0.910876
0.911056
0.910398
0.910411
0.910424
0.910438
0.910451
0.910465
0.910479
0.910493
0.910507
0.910521
0.910536
0.910551
0.910566
0.910582
0.910597
0.910613
0.910629
0.910645
0.910662
0.910679
0.910696
0.910875
0.910243
0.910254
0.910266
0.910279
0.910291
0.910304
0.910316
0.910329
0.910342
0.910355
0.910369
0.910383
0.910397
0.910411
0.910425
0.910439
0.910454
0.910469
0.910484
0.9105
0.910515
0.910694
0.910087
0.910098
0.910109
0.91012
0.910131
0.910142
0.910154
0.910166
0.910177
0.91019
0.910202
0.910214
0.910227
0.91024
0.910253
0.910266
0.910279
0.910293
0.910307
0.910321
0.910335
0.910514
0.909931
0.909941
0.909951
0.909961
0.909971
0.909981
0.909991
0.910002
0.910013
0.910024
0.910035
0.910046
0.910057
0.910069
0.91008
0.910092
0.910104
0.910117
0.910129
0.910142
0.910154
0.910334
0.909776
0.909784
0.909793
0.909802
0.909811
0.90982
0.909829
0.909838
0.909848
0.909858
0.909867
0.909877
0.909888
0.909898
0.909908
0.909919
0.909929
0.90994
0.909951
0.909963
0.909974
0.910153
0.90962
0.909627
0.909635
0.909643
0.909651
0.909659
0.909667
0.909675
0.909683
0.909692
0.9097
0.909709
0.909718
0.909727
0.909736
0.909745
0.909755
0.909764
0.909774
0.909784
0.909794
0.909973
0.909464
0.909471
0.909477
0.909484
0.909491
0.909497
0.909504
0.909511
0.909519
0.909526
0.909533
0.909541
0.909548
0.909556
0.909564
0.909572
0.90958
0.909588
0.909596
0.909605
0.909613
0.909792
0.909309
0.909314
0.909319
0.909325
0.909331
0.909336
0.909342
0.909348
0.909354
0.90936
0.909366
0.909372
0.909379
0.909385
0.909392
0.909398
0.909405
0.909412
0.909419
0.909426
0.909433
0.909612
0.909153
0.909157
0.909162
0.909166
0.909171
0.909175
0.90918
0.909184
0.909189
0.909194
0.909199
0.909204
0.909209
0.909214
0.909219
0.909225
0.90923
0.909235
0.909241
0.909247
0.909252
0.909431
0.908997
0.909001
0.909004
0.909007
0.909011
0.909014
0.909017
0.909021
0.909025
0.909028
0.909032
0.909036
0.909039
0.909043
0.909047
0.909051
0.909055
0.909059
0.909063
0.909068
0.909072
0.909251
0.908842
0.908844
0.908846
0.908848
0.908851
0.908853
0.908855
0.908858
0.90886
0.908862
0.908865
0.908867
0.90887
0.908872
0.908875
0.908878
0.90888
0.908883
0.908886
0.908889
0.908892
0.90907
0.908686
0.908687
0.908688
0.908689
0.908691
0.908692
0.908693
0.908694
0.908695
0.908696
0.908698
0.908699
0.9087
0.908702
0.908703
0.908704
0.908706
0.908707
0.908708
0.90871
0.908711
0.90889
0.908528
0.908528
0.908528
0.908528
0.908528
0.908528
0.908528
0.908528
0.908528
0.908528
0.908528
0.908528
0.908528
0.908528
0.908528
0.908528
0.908528
0.908528
0.908528
0.908528
0.908528
0.908707
)
;

boundaryField
{
    inlet
    {
        type            calculated;
        value           uniform 0;
    }
    outlet2
    {
        type            calculated;
        value           uniform 0;
    }
    outlet1
    {
        type            calculated;
        value           uniform 0;
    }
    wall
    {
        type            calculated;
        value           uniform 0;
    }
    symmetryBottom
    {
        type            symmetry;
    }
    symmetryZ0
    {
        type            symmetry;
    }
    symmetryZ05
    {
        type            symmetry;
    }
}


// ************************************************************************* //
