/*--------------------------------*- C++ -*----------------------------------*\
| =========                 |                                                 |
| \\      /  F ield         | OpenFOAM: The Open Source CFD Toolbox           |
|  \\    /   O peration     | Version:  2412                                  |
|   \\  /    A nd           | Website:  www.openfoam.com                      |
|    \\/     M anipulation  |                                                 |
\*---------------------------------------------------------------------------*/
FoamFile
{
    version     2.0;
    format      ascii;
    arch        "LSB;label=32;scalar=64";
    class       volScalarField;
    location    "1.68142e-07";
    object      rho_dof0;
}
// * * * * * * * * * * * * * * * * * * * * * * * * * * * * * * * * * * * * * //

dimensions      [0 0 0 0 0 0 0];

internalField   nonuniform List<scalar> 
625
(
2.80075e-05
2.72575e-05
2.72575e-05
2.80075e-05
2.72576e-05
2.72576e-05
2.80075e-05
2.72575e-05
2.72575e-05
2.80075e-05
2.72575e-05
2.72575e-05
2.80075e-05
2.72575e-05
2.72575e-05
2.80075e-05
2.72575e-05
2.72575e-05
2.80075e-05
2.72575e-05
2.72575e-05
2.80075e-05
2.72575e-05
2.72575e-05
2.80075e-05
2.72575e-05
2.72575e-05
2.80075e-05
2.72575e-05
2.72575e-05
2.80075e-05
2.72575e-05
2.72575e-05
2.80075e-05
2.72575e-05
2.72575e-05
2.80075e-05
2.72575e-05
2.72575e-05
2.80075e-05
2.72575e-05
2.72575e-05
2.80075e-05
2.72575e-05
2.72575e-05
2.80075e-05
2.72575e-05
2.72575e-05
2.80075e-05
2.72575e-05
2.72575e-05
2.80075e-05
2.72575e-05
2.72575e-05
2.80075e-05
2.72575e-05
2.72575e-05
2.80075e-05
2.72575e-05
2.72575e-05
2.80075e-05
2.72575e-05
2.72575e-05
2.80075e-05
2.72575e-05
2.72575e-05
2.80075e-05
2.72575e-05
2.72575e-05
2.80075e-05
2.72575e-05
2.72575e-05
2.80075e-05
2.72575e-05
2.72575e-05
2.73898e-05
2.73898e-05
2.73897e-05
2.73897e-05
2.73897e-05
2.73896e-05
2.73896e-05
2.73896e-05
2.73895e-05
2.73895e-05
2.73895e-05
2.73895e-05
2.73894e-05
2.73894e-05
2.73894e-05
2.73893e-05
2.73893e-05
2.73893e-05
2.73892e-05
2.73892e-05
2.73891e-05
2.73939e-05
2.74898e-05
2.74904e-05
2.74911e-05
2.74918e-05
2.74925e-05
2.74932e-05
2.74939e-05
2.74946e-05
2.74953e-05
2.74961e-05
2.74968e-05
2.74976e-05
2.74984e-05
2.74991e-05
2.74999e-05
2.75007e-05
2.75016e-05
2.75024e-05
2.75033e-05
2.75041e-05
2.7505e-05
2.75098e-05
2.74855e-05
2.74861e-05
2.74868e-05
2.74874e-05
2.74881e-05
2.74887e-05
2.74894e-05
2.74901e-05
2.74908e-05
2.74915e-05
2.74922e-05
2.74929e-05
2.74937e-05
2.74944e-05
2.74952e-05
2.7496e-05
2.74968e-05
2.74976e-05
2.74984e-05
2.74992e-05
2.75e-05
2.75048e-05
2.74813e-05
2.74819e-05
2.74825e-05
2.74832e-05
2.74838e-05
2.74844e-05
2.74851e-05
2.74857e-05
2.74864e-05
2.74871e-05
2.74878e-05
2.74885e-05
2.74892e-05
2.74899e-05
2.74906e-05
2.74913e-05
2.74921e-05
2.74929e-05
2.74936e-05
2.74944e-05
2.74952e-05
2.75e-05
2.74772e-05
2.74778e-05
2.74783e-05
2.74789e-05
2.74795e-05
2.74801e-05
2.74808e-05
2.74814e-05
2.7482e-05
2.74827e-05
2.74833e-05
2.7484e-05
2.74846e-05
2.74853e-05
2.7486e-05
2.74867e-05
2.74874e-05
2.74882e-05
2.74889e-05
2.74896e-05
2.74904e-05
2.74952e-05
2.7473e-05
2.74736e-05
2.74741e-05
2.74747e-05
2.74753e-05
2.74758e-05
2.74764e-05
2.7477e-05
2.74776e-05
2.74782e-05
2.74788e-05
2.74795e-05
2.74801e-05
2.74808e-05
2.74814e-05
2.74821e-05
2.74828e-05
2.74835e-05
2.74842e-05
2.74849e-05
2.74856e-05
2.74904e-05
2.74689e-05
2.74694e-05
2.74699e-05
2.74705e-05
2.7471e-05
2.74715e-05
2.74721e-05
2.74727e-05
2.74732e-05
2.74738e-05
2.74744e-05
2.7475e-05
2.74756e-05
2.74762e-05
2.74768e-05
2.74775e-05
2.74781e-05
2.74788e-05
2.74794e-05
2.74801e-05
2.74808e-05
2.74856e-05
2.74647e-05
2.74652e-05
2.74657e-05
2.74662e-05
2.74667e-05
2.74672e-05
2.74678e-05
2.74683e-05
2.74688e-05
2.74694e-05
2.74699e-05
2.74705e-05
2.74711e-05
2.74716e-05
2.74722e-05
2.74728e-05
2.74734e-05
2.74741e-05
2.74747e-05
2.74753e-05
2.7476e-05
2.74808e-05
2.74606e-05
2.7461e-05
2.74615e-05
2.7462e-05
2.74625e-05
2.74629e-05
2.74634e-05
2.74639e-05
2.74644e-05
2.7465e-05
2.74655e-05
2.7466e-05
2.74665e-05
2.74671e-05
2.74676e-05
2.74682e-05
2.74688e-05
2.74694e-05
2.74699e-05
2.74705e-05
2.74712e-05
2.7476e-05
2.74564e-05
2.74569e-05
2.74573e-05
2.74577e-05
2.74582e-05
2.74586e-05
2.74591e-05
2.74596e-05
2.74601e-05
2.74605e-05
2.7461e-05
2.74615e-05
2.7462e-05
2.74625e-05
2.74631e-05
2.74636e-05
2.74641e-05
2.74647e-05
2.74652e-05
2.74658e-05
2.74663e-05
2.74711e-05
2.74523e-05
2.74527e-05
2.74531e-05
2.74535e-05
2.74539e-05
2.74543e-05
2.74548e-05
2.74552e-05
2.74557e-05
2.74561e-05
2.74566e-05
2.7457e-05
2.74575e-05
2.7458e-05
2.74585e-05
2.7459e-05
2.74595e-05
2.746e-05
2.74605e-05
2.7461e-05
2.74615e-05
2.74663e-05
2.74481e-05
2.74485e-05
2.74489e-05
2.74493e-05
2.74497e-05
2.74501e-05
2.74505e-05
2.74509e-05
2.74513e-05
2.74517e-05
2.74521e-05
2.74525e-05
2.7453e-05
2.74534e-05
2.74539e-05
2.74543e-05
2.74548e-05
2.74553e-05
2.74557e-05
2.74562e-05
2.74567e-05
2.74615e-05
2.7444e-05
2.74443e-05
2.74447e-05
2.7445e-05
2.74454e-05
2.74458e-05
2.74461e-05
2.74465e-05
2.74469e-05
2.74473e-05
2.74477e-05
2.74481e-05
2.74485e-05
2.74489e-05
2.74493e-05
2.74497e-05
2.74501e-05
2.74506e-05
2.7451e-05
2.74515e-05
2.74519e-05
2.74567e-05
2.74398e-05
2.74402e-05
2.74405e-05
2.74408e-05
2.74411e-05
2.74415e-05
2.74418e-05
2.74422e-05
2.74425e-05
2.74429e-05
2.74432e-05
2.74436e-05
2.74439e-05
2.74443e-05
2.74447e-05
2.74451e-05
2.74455e-05
2.74459e-05
2.74463e-05
2.74467e-05
2.74471e-05
2.74519e-05
2.74357e-05
2.7436e-05
2.74363e-05
2.74366e-05
2.74369e-05
2.74372e-05
2.74375e-05
2.74378e-05
2.74381e-05
2.74384e-05
2.74388e-05
2.74391e-05
2.74394e-05
2.74398e-05
2.74401e-05
2.74405e-05
2.74408e-05
2.74412e-05
2.74416e-05
2.74419e-05
2.74423e-05
2.74471e-05
2.74316e-05
2.74318e-05
2.74321e-05
2.74323e-05
2.74326e-05
2.74329e-05
2.74332e-05
2.74334e-05
2.74337e-05
2.7434e-05
2.74343e-05
2.74346e-05
2.74349e-05
2.74352e-05
2.74355e-05
2.74359e-05
2.74362e-05
2.74365e-05
2.74368e-05
2.74372e-05
2.74375e-05
2.74423e-05
2.74274e-05
2.74276e-05
2.74279e-05
2.74281e-05
2.74284e-05
2.74286e-05
2.74288e-05
2.74291e-05
2.74294e-05
2.74296e-05
2.74299e-05
2.74301e-05
2.74304e-05
2.74307e-05
2.7431e-05
2.74312e-05
2.74315e-05
2.74318e-05
2.74321e-05
2.74324e-05
2.74327e-05
2.74375e-05
2.74233e-05
2.74235e-05
2.74237e-05
2.74239e-05
2.74241e-05
2.74243e-05
2.74245e-05
2.74247e-05
2.7425e-05
2.74252e-05
2.74254e-05
2.74257e-05
2.74259e-05
2.74261e-05
2.74264e-05
2.74266e-05
2.74269e-05
2.74271e-05
2.74274e-05
2.74276e-05
2.74279e-05
2.74327e-05
2.74191e-05
2.74193e-05
2.74195e-05
2.74197e-05
2.74198e-05
2.742e-05
2.74202e-05
2.74204e-05
2.74206e-05
2.74208e-05
2.7421e-05
2.74212e-05
2.74214e-05
2.74216e-05
2.74218e-05
2.7422e-05
2.74222e-05
2.74224e-05
2.74227e-05
2.74229e-05
2.74231e-05
2.74279e-05
2.7415e-05
2.74151e-05
2.74153e-05
2.74154e-05
2.74156e-05
2.74157e-05
2.74159e-05
2.7416e-05
2.74162e-05
2.74164e-05
2.74165e-05
2.74167e-05
2.74169e-05
2.7417e-05
2.74172e-05
2.74174e-05
2.74176e-05
2.74177e-05
2.74179e-05
2.74181e-05
2.74183e-05
2.74231e-05
2.74109e-05
2.7411e-05
2.74111e-05
2.74112e-05
2.74113e-05
2.74114e-05
2.74116e-05
2.74117e-05
2.74118e-05
2.74119e-05
2.74121e-05
2.74122e-05
2.74123e-05
2.74125e-05
2.74126e-05
2.74128e-05
2.74129e-05
2.74131e-05
2.74132e-05
2.74134e-05
2.74135e-05
2.74183e-05
2.74067e-05
2.74068e-05
2.74069e-05
2.7407e-05
2.74071e-05
2.74072e-05
2.74072e-05
2.74073e-05
2.74074e-05
2.74075e-05
2.74076e-05
2.74077e-05
2.74078e-05
2.74079e-05
2.7408e-05
2.74081e-05
2.74083e-05
2.74084e-05
2.74085e-05
2.74086e-05
2.74087e-05
2.74135e-05
2.74026e-05
2.74026e-05
2.74027e-05
2.74027e-05
2.74028e-05
2.74029e-05
2.74029e-05
2.7403e-05
2.74031e-05
2.74031e-05
2.74032e-05
2.74033e-05
2.74033e-05
2.74034e-05
2.74035e-05
2.74035e-05
2.74036e-05
2.74037e-05
2.74037e-05
2.74038e-05
2.74039e-05
2.74087e-05
2.73984e-05
2.73985e-05
2.73985e-05
2.73985e-05
2.73985e-05
2.73986e-05
2.73986e-05
2.73986e-05
2.73987e-05
2.73987e-05
2.73987e-05
2.73988e-05
2.73988e-05
2.73988e-05
2.73989e-05
2.73989e-05
2.73989e-05
2.7399e-05
2.7399e-05
2.73991e-05
2.73991e-05
2.74039e-05
2.73942e-05
2.73942e-05
2.73942e-05
2.73942e-05
2.73942e-05
2.73942e-05
2.73942e-05
2.73942e-05
2.73942e-05
2.73942e-05
2.73942e-05
2.73942e-05
2.73942e-05
2.73942e-05
2.73942e-05
2.73942e-05
2.73942e-05
2.73942e-05
2.73942e-05
2.73942e-05
2.73942e-05
2.7399e-05
)
;

boundaryField
{
    inlet
    {
        type            calculated;
        value           uniform 2.8e-05;
    }
    outlet2
    {
        type            calculated;
        value           uniform 2.8e-05;
    }
    outlet1
    {
        type            calculated;
        value           uniform 2.8e-05;
    }
    wall
    {
        type            calculated;
        value           uniform 2.8e-05;
    }
    symmetryBottom
    {
        type            symmetry;
    }
    symmetryZ0
    {
        type            symmetry;
    }
    symmetryZ05
    {
        type            symmetry;
    }
}


// ************************************************************************* //
