/*--------------------------------*- C++ -*----------------------------------*\
| =========                 |                                                 |
| \\      /  F ield         | OpenFOAM: The Open Source CFD Toolbox           |
|  \\    /   O peration     | Version:  2412                                  |
|   \\  /    A nd           | Website:  www.openfoam.com                      |
|    \\/     M anipulation  |                                                 |
\*---------------------------------------------------------------------------*/
FoamFile
{
    version     2.0;
    format      ascii;
    arch        "LSB;label=32;scalar=64";
    class       volScalarField;
    location    "1.68142e-07";
    object      rho_dof3;
}
// * * * * * * * * * * * * * * * * * * * * * * * * * * * * * * * * * * * * * //

dimensions      [0 0 0 0 0 0 0];

internalField   nonuniform List<scalar> 
625
(
3.72484e-08
3.68737e-08
3.63742e-08
3.72484e-08
3.68737e-08
3.63743e-08
3.72484e-08
3.68737e-08
3.63743e-08
3.72484e-08
3.68737e-08
3.63743e-08
3.72484e-08
3.68737e-08
3.63743e-08
3.72484e-08
3.68737e-08
3.63743e-08
3.72484e-08
3.68737e-08
3.63743e-08
3.72484e-08
3.68737e-08
3.63743e-08
3.72484e-08
3.68737e-08
3.63743e-08
3.72484e-08
3.68737e-08
3.63743e-08
3.72484e-08
3.68737e-08
3.63743e-08
3.72484e-08
3.68737e-08
3.63743e-08
3.72484e-08
3.68737e-08
3.63743e-08
3.72484e-08
3.68737e-08
3.63743e-08
3.72484e-08
3.68737e-08
3.63743e-08
3.72484e-08
3.68737e-08
3.63743e-08
3.72484e-08
3.68737e-08
3.63743e-08
3.72484e-08
3.68737e-08
3.63743e-08
3.72484e-08
3.68737e-08
3.63743e-08
3.72484e-08
3.68737e-08
3.63743e-08
3.72484e-08
3.68737e-08
3.63743e-08
3.72484e-08
3.68737e-08
3.63743e-08
3.72484e-08
3.68737e-08
3.63743e-08
3.72484e-08
3.68737e-08
3.63743e-08
3.72531e-08
3.68783e-08
3.68734e-08
3.70747e-08
3.70754e-08
3.70761e-08
3.70769e-08
3.70776e-08
3.70784e-08
3.70792e-08
3.70799e-08
3.70807e-08
3.70815e-08
3.70823e-08
3.70832e-08
3.7084e-08
3.70849e-08
3.70857e-08
3.70866e-08
3.70875e-08
3.70884e-08
3.70893e-08
3.70903e-08
3.70912e-08
4.35048e-08
3.71461e-08
3.71473e-08
3.71485e-08
3.71498e-08
3.7151e-08
3.71523e-08
3.71536e-08
3.71549e-08
3.71563e-08
3.71576e-08
3.7159e-08
3.71604e-08
3.71618e-08
3.71633e-08
3.71647e-08
3.71662e-08
3.71677e-08
3.71693e-08
3.71708e-08
3.71724e-08
3.7174e-08
4.3603e-08
3.7144e-08
3.71452e-08
3.71464e-08
3.71476e-08
3.71489e-08
3.71501e-08
3.71514e-08
3.71527e-08
3.7154e-08
3.71554e-08
3.71568e-08
3.71581e-08
3.71595e-08
3.7161e-08
3.71624e-08
3.71639e-08
3.71654e-08
3.71669e-08
3.71684e-08
3.717e-08
3.71716e-08
4.36001e-08
3.71419e-08
3.71431e-08
3.71443e-08
3.71455e-08
3.71467e-08
3.7148e-08
3.71492e-08
3.71505e-08
3.71518e-08
3.71531e-08
3.71545e-08
3.71559e-08
3.71572e-08
3.71587e-08
3.71601e-08
3.71615e-08
3.7163e-08
3.71645e-08
3.7166e-08
3.71676e-08
3.71691e-08
4.35972e-08
3.71398e-08
3.71409e-08
3.71421e-08
3.71433e-08
3.71445e-08
3.71458e-08
3.7147e-08
3.71483e-08
3.71496e-08
3.71509e-08
3.71522e-08
3.71536e-08
3.7155e-08
3.71563e-08
3.71578e-08
3.71592e-08
3.71606e-08
3.71621e-08
3.71636e-08
3.71651e-08
3.71667e-08
4.35943e-08
3.71377e-08
3.71388e-08
3.714e-08
3.71412e-08
3.71424e-08
3.71436e-08
3.71448e-08
3.71461e-08
3.71474e-08
3.71487e-08
3.715e-08
3.71513e-08
3.71527e-08
3.7154e-08
3.71554e-08
3.71568e-08
3.71583e-08
3.71597e-08
3.71612e-08
3.71627e-08
3.71642e-08
4.35914e-08
3.71356e-08
3.71367e-08
3.71379e-08
3.7139e-08
3.71402e-08
3.71414e-08
3.71426e-08
3.71439e-08
3.71451e-08
3.71464e-08
3.71477e-08
3.7149e-08
3.71504e-08
3.71517e-08
3.71531e-08
3.71545e-08
3.71559e-08
3.71574e-08
3.71588e-08
3.71603e-08
3.71618e-08
4.35885e-08
3.71335e-08
3.71346e-08
3.71357e-08
3.71369e-08
3.71381e-08
3.71392e-08
3.71405e-08
3.71417e-08
3.71429e-08
3.71442e-08
3.71455e-08
3.71468e-08
3.71481e-08
3.71494e-08
3.71508e-08
3.71521e-08
3.71535e-08
3.7155e-08
3.71564e-08
3.71579e-08
3.71594e-08
4.35856e-08
3.71314e-08
3.71325e-08
3.71336e-08
3.71347e-08
3.71359e-08
3.71371e-08
3.71383e-08
3.71395e-08
3.71407e-08
3.71419e-08
3.71432e-08
3.71445e-08
3.71458e-08
3.71471e-08
3.71484e-08
3.71498e-08
3.71512e-08
3.71526e-08
3.7154e-08
3.71555e-08
3.71569e-08
4.35827e-08
3.71293e-08
3.71304e-08
3.71315e-08
3.71326e-08
3.71337e-08
3.71349e-08
3.71361e-08
3.71373e-08
3.71385e-08
3.71397e-08
3.71409e-08
3.71422e-08
3.71435e-08
3.71448e-08
3.71461e-08
3.71475e-08
3.71488e-08
3.71502e-08
3.71516e-08
3.7153e-08
3.71545e-08
4.35798e-08
3.71272e-08
3.71282e-08
3.71293e-08
3.71304e-08
3.71316e-08
3.71327e-08
3.71339e-08
3.71351e-08
3.71362e-08
3.71375e-08
3.71387e-08
3.71399e-08
3.71412e-08
3.71425e-08
3.71438e-08
3.71451e-08
3.71465e-08
3.71478e-08
3.71492e-08
3.71506e-08
3.71521e-08
4.35769e-08
3.71249e-08
3.7126e-08
3.71271e-08
3.71282e-08
3.71293e-08
3.71304e-08
3.71315e-08
3.71327e-08
3.71339e-08
3.71351e-08
3.71363e-08
3.71375e-08
3.71388e-08
3.714e-08
3.71413e-08
3.71426e-08
3.71439e-08
3.71453e-08
3.71467e-08
3.7148e-08
3.71495e-08
4.35739e-08
3.71225e-08
3.71235e-08
3.71246e-08
3.71257e-08
3.71267e-08
3.71279e-08
3.7129e-08
3.71301e-08
3.71313e-08
3.71325e-08
3.71336e-08
3.71349e-08
3.71361e-08
3.71373e-08
3.71386e-08
3.71399e-08
3.71412e-08
3.71425e-08
3.71439e-08
3.71452e-08
3.71466e-08
4.35705e-08
3.712e-08
3.7121e-08
3.71221e-08
3.71231e-08
3.71242e-08
3.71253e-08
3.71264e-08
3.71275e-08
3.71287e-08
3.71298e-08
3.7131e-08
3.71322e-08
3.71334e-08
3.71346e-08
3.71359e-08
3.71371e-08
3.71384e-08
3.71397e-08
3.71411e-08
3.71424e-08
3.71438e-08
4.35671e-08
3.71176e-08
3.71186e-08
3.71196e-08
3.71206e-08
3.71217e-08
3.71228e-08
3.71239e-08
3.7125e-08
3.71261e-08
3.71272e-08
3.71284e-08
3.71296e-08
3.71307e-08
3.71319e-08
3.71332e-08
3.71344e-08
3.71357e-08
3.7137e-08
3.71383e-08
3.71396e-08
3.71409e-08
4.35637e-08
3.71151e-08
3.71161e-08
3.71171e-08
3.71181e-08
3.71192e-08
3.71202e-08
3.71213e-08
3.71224e-08
3.71235e-08
3.71246e-08
3.71258e-08
3.71269e-08
3.71281e-08
3.71293e-08
3.71305e-08
3.71317e-08
3.71329e-08
3.71342e-08
3.71355e-08
3.71368e-08
3.71381e-08
4.35604e-08
3.71127e-08
3.71136e-08
3.71146e-08
3.71156e-08
3.71167e-08
3.71177e-08
3.71188e-08
3.71198e-08
3.71209e-08
3.7122e-08
3.71231e-08
3.71242e-08
3.71254e-08
3.71266e-08
3.71277e-08
3.71289e-08
3.71302e-08
3.71314e-08
3.71327e-08
3.71339e-08
3.71352e-08
4.3557e-08
3.71102e-08
3.71112e-08
3.71121e-08
3.71131e-08
3.71141e-08
3.71152e-08
3.71162e-08
3.71172e-08
3.71183e-08
3.71194e-08
3.71205e-08
3.71216e-08
3.71227e-08
3.71239e-08
3.7125e-08
3.71262e-08
3.71274e-08
3.71286e-08
3.71299e-08
3.71311e-08
3.71324e-08
4.35536e-08
3.71078e-08
3.71087e-08
3.71097e-08
3.71106e-08
3.71116e-08
3.71126e-08
3.71136e-08
3.71147e-08
3.71157e-08
3.71168e-08
3.71179e-08
3.71189e-08
3.71201e-08
3.71212e-08
3.71223e-08
3.71235e-08
3.71247e-08
3.71259e-08
3.71271e-08
3.71283e-08
3.71296e-08
4.35503e-08
3.71053e-08
3.71062e-08
3.71072e-08
3.71081e-08
3.71091e-08
3.71101e-08
3.71111e-08
3.71121e-08
3.71131e-08
3.71142e-08
3.71152e-08
3.71163e-08
3.71174e-08
3.71185e-08
3.71196e-08
3.71207e-08
3.71219e-08
3.71231e-08
3.71243e-08
3.71255e-08
3.71267e-08
4.35469e-08
3.71029e-08
3.71038e-08
3.71047e-08
3.71056e-08
3.71066e-08
3.71075e-08
3.71085e-08
3.71095e-08
3.71105e-08
3.71116e-08
3.71126e-08
3.71136e-08
3.71147e-08
3.71158e-08
3.71169e-08
3.7118e-08
3.71191e-08
3.71203e-08
3.71215e-08
3.71227e-08
3.71239e-08
4.35435e-08
3.71004e-08
3.71013e-08
3.71022e-08
3.71031e-08
3.71041e-08
3.7105e-08
3.7106e-08
3.71069e-08
3.71079e-08
3.71089e-08
3.711e-08
3.7111e-08
3.7112e-08
3.71131e-08
3.71142e-08
3.71153e-08
3.71164e-08
3.71175e-08
3.71187e-08
3.71198e-08
3.7121e-08
4.35401e-08
3.70979e-08
3.70988e-08
3.70997e-08
3.71006e-08
3.71015e-08
3.71025e-08
3.71034e-08
3.71044e-08
3.71053e-08
3.71063e-08
3.71073e-08
3.71083e-08
3.71094e-08
3.71104e-08
3.71115e-08
3.71125e-08
3.71136e-08
3.71147e-08
3.71159e-08
3.7117e-08
3.71182e-08
4.35368e-08
3.70955e-08
3.70964e-08
3.70972e-08
3.70981e-08
3.7099e-08
3.70999e-08
3.71009e-08
3.71018e-08
3.71027e-08
3.71037e-08
3.71047e-08
3.71057e-08
3.71067e-08
3.71077e-08
3.71088e-08
3.71098e-08
3.71109e-08
3.7112e-08
3.71131e-08
3.71142e-08
3.71153e-08
4.35334e-08
3.70977e-08
3.70986e-08
3.70995e-08
3.71004e-08
3.71013e-08
3.71022e-08
3.71032e-08
3.71041e-08
3.71051e-08
3.71061e-08
3.71071e-08
3.71081e-08
3.71091e-08
3.71101e-08
3.71112e-08
3.71123e-08
3.71134e-08
3.71145e-08
3.71156e-08
3.71167e-08
3.71179e-08
4.35364e-08
)
;

boundaryField
{
    inlet
    {
        type            calculated;
        value           uniform 0;
    }
    outlet2
    {
        type            calculated;
        value           uniform 0;
    }
    outlet1
    {
        type            calculated;
        value           uniform 0;
    }
    wall
    {
        type            calculated;
        value           uniform 0;
    }
    symmetryBottom
    {
        type            symmetry;
    }
    symmetryZ0
    {
        type            symmetry;
    }
    symmetryZ05
    {
        type            symmetry;
    }
}


// ************************************************************************* //
