/*--------------------------------*- C++ -*----------------------------------*\
| =========                 |                                                 |
| \\      /  F ield         | OpenFOAM: The Open Source CFD Toolbox           |
|  \\    /   O peration     | Version:  2412                                  |
|   \\  /    A nd           | Website:  www.openfoam.com                      |
|    \\/     M anipulation  |                                                 |
\*---------------------------------------------------------------------------*/
FoamFile
{
    version     2.0;
    format      ascii;
    arch        "LSB;label=32;scalar=64";
    class       volScalarField;
    location    "1.68142e-07";
    object      rho_dof2;
}
// * * * * * * * * * * * * * * * * * * * * * * * * * * * * * * * * * * * * * //

dimensions      [0 0 0 0 0 0 0];

internalField   nonuniform List<scalar> 
625
(
3.50362e-11
3.12974e-10
-2.47544e-13
-3.94789e-11
2.38956e-10
-1.72822e-12
-1.47658e-11
2.6367e-10
-1.72792e-12
-1.47658e-11
2.6367e-10
-1.72792e-12
-1.47658e-11
2.6367e-10
-1.72792e-12
-1.47658e-11
2.6367e-10
-1.72792e-12
-1.47658e-11
2.6367e-10
-1.72792e-12
-1.47658e-11
2.6367e-10
-1.72792e-12
-1.47658e-11
2.6367e-10
-1.72792e-12
-1.47658e-11
2.6367e-10
-1.72792e-12
-1.47658e-11
2.6367e-10
-1.72792e-12
-1.47658e-11
2.6367e-10
-1.72792e-12
-1.47658e-11
2.6367e-10
-1.72792e-12
-1.47658e-11
2.6367e-10
-1.72792e-12
-1.47658e-11
2.6367e-10
-1.72792e-12
-1.47658e-11
2.6367e-10
-1.72792e-12
-1.47658e-11
2.6367e-10
-1.72792e-12
-1.47658e-11
2.6367e-10
-1.72792e-12
-1.47658e-11
2.6367e-10
-1.72792e-12
-1.47658e-11
2.6367e-10
-1.72792e-12
-1.47658e-11
2.6367e-10
-1.72792e-12
-1.47658e-11
2.6367e-10
-1.72792e-12
-1.47658e-11
2.6367e-10
-1.72792e-12
-1.47658e-11
2.6367e-10
-1.72792e-12
-1.94066e-12
-1.41372e-12
-2.15469e-12
3.06464e-07
3.08575e-07
3.10715e-07
3.12885e-07
3.15086e-07
3.17318e-07
3.19582e-07
3.21878e-07
3.24208e-07
3.26571e-07
3.28969e-07
3.31403e-07
3.33873e-07
3.3638e-07
3.38925e-07
3.41508e-07
3.44132e-07
3.46796e-07
3.49502e-07
3.5225e-07
3.55041e-07
4.9797e-13
-5.92976e-09
-5.97432e-09
-6.01954e-09
-6.06545e-09
-6.11206e-09
-6.15939e-09
-6.20744e-09
-6.25625e-09
-6.30583e-09
-6.3562e-09
-6.40737e-09
-6.45936e-09
-6.51221e-09
-6.56591e-09
-6.6205e-09
-6.676e-09
-6.73244e-09
-6.78982e-09
-6.84819e-09
-6.90755e-09
-6.96796e-09
-1.7217e-12
-5.59271e-09
-5.63235e-09
-5.67255e-09
-5.71333e-09
-5.75471e-09
-5.79668e-09
-5.83928e-09
-5.8825e-09
-5.92637e-09
-5.97089e-09
-6.01609e-09
-6.06198e-09
-6.10857e-09
-6.15589e-09
-6.20394e-09
-6.25275e-09
-6.30233e-09
-6.3527e-09
-6.40389e-09
-6.4559e-09
-6.50877e-09
-1.7217e-12
-5.61668e-09
-5.65641e-09
-5.69671e-09
-5.73759e-09
-5.77906e-09
-5.82113e-09
-5.86382e-09
-5.90714e-09
-5.9511e-09
-5.99572e-09
-6.04102e-09
-6.08701e-09
-6.1337e-09
-6.18111e-09
-6.22926e-09
-6.27817e-09
-6.32784e-09
-6.37832e-09
-6.4296e-09
-6.48171e-09
-6.53467e-09
-1.7217e-12
-5.64112e-09
-5.68096e-09
-5.72136e-09
-5.76234e-09
-5.80391e-09
-5.84609e-09
-5.88887e-09
-5.9323e-09
-5.97636e-09
-6.0211e-09
-6.06649e-09
-6.11258e-09
-6.15939e-09
-6.2069e-09
-6.25516e-09
-6.30417e-09
-6.35396e-09
-6.40453e-09
-6.45592e-09
-6.50814e-09
-6.56122e-09
-1.7217e-12
-5.66603e-09
-5.70597e-09
-5.74649e-09
-5.78757e-09
-5.82925e-09
-5.87154e-09
-5.91444e-09
-5.95797e-09
-6.00216e-09
-6.04699e-09
-6.09251e-09
-6.13871e-09
-6.18562e-09
-6.23326e-09
-6.28162e-09
-6.33075e-09
-6.38065e-09
-6.43135e-09
-6.48285e-09
-6.53519e-09
-6.58838e-09
-1.7217e-12
-5.69141e-09
-5.73147e-09
-5.77209e-09
-5.8133e-09
-5.85509e-09
-5.89749e-09
-5.94052e-09
-5.98417e-09
-6.02847e-09
-6.07343e-09
-6.11906e-09
-6.16539e-09
-6.21242e-09
-6.26017e-09
-6.30867e-09
-6.35792e-09
-6.40794e-09
-6.45877e-09
-6.5104e-09
-6.56286e-09
-6.61618e-09
-1.7217e-12
-5.71726e-09
-5.75743e-09
-5.79818e-09
-5.83951e-09
-5.88143e-09
-5.92396e-09
-5.9671e-09
-6.01088e-09
-6.05531e-09
-6.10039e-09
-6.14616e-09
-6.19261e-09
-6.23977e-09
-6.28766e-09
-6.33629e-09
-6.38567e-09
-6.43583e-09
-6.48678e-09
-6.53855e-09
-6.59115e-09
-6.6446e-09
-1.7217e-12
-5.74357e-09
-5.78388e-09
-5.82475e-09
-5.86621e-09
-5.90826e-09
-5.95092e-09
-5.9942e-09
-6.03811e-09
-6.08267e-09
-6.12789e-09
-6.17379e-09
-6.22038e-09
-6.26769e-09
-6.31571e-09
-6.36448e-09
-6.41401e-09
-6.4643e-09
-6.51541e-09
-6.56731e-09
-6.62006e-09
-6.67366e-09
-1.7217e-12
-5.77036e-09
-5.8108e-09
-5.85181e-09
-5.8934e-09
-5.93559e-09
-5.97839e-09
-6.0218e-09
-6.06586e-09
-6.11056e-09
-6.15592e-09
-6.20197e-09
-6.24871e-09
-6.29615e-09
-6.34433e-09
-6.39324e-09
-6.44292e-09
-6.49338e-09
-6.54462e-09
-6.59669e-09
-6.64959e-09
-6.70334e-09
-1.7217e-12
-5.79761e-09
-5.83819e-09
-5.87934e-09
-5.92108e-09
-5.96341e-09
-6.00635e-09
-6.04992e-09
-6.09412e-09
-6.13897e-09
-6.18449e-09
-6.23068e-09
-6.27757e-09
-6.32518e-09
-6.3735e-09
-6.42258e-09
-6.47242e-09
-6.52303e-09
-6.57444e-09
-6.62667e-09
-6.67974e-09
-6.73366e-09
-1.7217e-12
-5.81856e-09
-5.85924e-09
-5.9005e-09
-5.94233e-09
-5.98477e-09
-6.02781e-09
-6.07148e-09
-6.11579e-09
-6.16075e-09
-6.20637e-09
-6.25268e-09
-6.29968e-09
-6.34739e-09
-6.39583e-09
-6.44501e-09
-6.49496e-09
-6.54569e-09
-6.59722e-09
-6.64956e-09
-6.70275e-09
-6.75678e-09
-1.73046e-12
-5.8301e-09
-5.87082e-09
-5.91211e-09
-5.95399e-09
-5.99646e-09
-6.03955e-09
-6.08325e-09
-6.1276e-09
-6.1726e-09
-6.21826e-09
-6.2646e-09
-6.31164e-09
-6.3594e-09
-6.40787e-09
-6.4571e-09
-6.50708e-09
-6.55785e-09
-6.60941e-09
-6.66179e-09
-6.71501e-09
-6.76909e-09
-1.75177e-12
-5.84178e-09
-5.88254e-09
-5.92388e-09
-5.9658e-09
-6.00831e-09
-6.05144e-09
-6.09519e-09
-6.13957e-09
-6.18461e-09
-6.23031e-09
-6.2767e-09
-6.32378e-09
-6.37157e-09
-6.42009e-09
-6.46935e-09
-6.51938e-09
-6.57018e-09
-6.62178e-09
-6.6742e-09
-6.72746e-09
-6.78157e-09
-1.77305e-12
-5.85369e-09
-5.89449e-09
-5.93587e-09
-5.97784e-09
-6.0204e-09
-6.06356e-09
-6.10736e-09
-6.15179e-09
-6.19687e-09
-6.24262e-09
-6.28905e-09
-6.33617e-09
-6.38401e-09
-6.43257e-09
-6.48188e-09
-6.53195e-09
-6.58279e-09
-6.63444e-09
-6.68691e-09
-6.74021e-09
-6.79436e-09
-1.79437e-12
-5.86582e-09
-5.90667e-09
-5.94809e-09
-5.99011e-09
-6.03271e-09
-6.07594e-09
-6.11977e-09
-6.16425e-09
-6.20938e-09
-6.25518e-09
-6.30165e-09
-6.34883e-09
-6.39671e-09
-6.44532e-09
-6.49468e-09
-6.54479e-09
-6.5957e-09
-6.64739e-09
-6.6999e-09
-6.75325e-09
-6.80745e-09
-1.81572e-12
-5.87817e-09
-5.91907e-09
-5.96055e-09
-6.00261e-09
-6.04527e-09
-6.08854e-09
-6.13243e-09
-6.17696e-09
-6.22215e-09
-6.26799e-09
-6.31452e-09
-6.36174e-09
-6.40968e-09
-6.45835e-09
-6.50775e-09
-6.55792e-09
-6.60887e-09
-6.66062e-09
-6.71318e-09
-6.76659e-09
-6.82084e-09
-1.83709e-12
-5.89074e-09
-5.9317e-09
-5.97323e-09
-6.01534e-09
-6.05806e-09
-6.10138e-09
-6.14533e-09
-6.18991e-09
-6.23515e-09
-6.28105e-09
-6.32764e-09
-6.37492e-09
-6.42291e-09
-6.47163e-09
-6.5211e-09
-6.57132e-09
-6.62233e-09
-6.67414e-09
-6.72676e-09
-6.78021e-09
-6.83453e-09
-1.85849e-12
-5.90353e-09
-5.94455e-09
-5.98613e-09
-6.02831e-09
-6.07107e-09
-6.11446e-09
-6.15846e-09
-6.20311e-09
-6.24841e-09
-6.29437e-09
-6.34101e-09
-6.38835e-09
-6.4364e-09
-6.48519e-09
-6.53471e-09
-6.585e-09
-6.63607e-09
-6.68794e-09
-6.74062e-09
-6.79414e-09
-6.84852e-09
-1.8799e-12
-5.91655e-09
-5.95762e-09
-5.99927e-09
-6.0415e-09
-6.08434e-09
-6.12777e-09
-6.17185e-09
-6.21655e-09
-6.26191e-09
-6.30794e-09
-6.35464e-09
-6.40205e-09
-6.45017e-09
-6.49901e-09
-6.5486e-09
-6.59896e-09
-6.65009e-09
-6.70203e-09
-6.75477e-09
-6.80836e-09
-6.86281e-09
-1.90134e-12
-5.92978e-09
-5.97092e-09
-6.01263e-09
-6.05493e-09
-6.09782e-09
-6.14133e-09
-6.18546e-09
-6.23024e-09
-6.27566e-09
-6.32175e-09
-6.36853e-09
-6.416e-09
-6.46419e-09
-6.5131e-09
-6.56276e-09
-6.61319e-09
-6.6644e-09
-6.71639e-09
-6.76922e-09
-6.82288e-09
-6.87739e-09
-1.92278e-12
-5.94324e-09
-5.98444e-09
-6.02621e-09
-6.06858e-09
-6.11154e-09
-6.15512e-09
-6.19932e-09
-6.24417e-09
-6.28966e-09
-6.33583e-09
-6.38267e-09
-6.43022e-09
-6.47847e-09
-6.52746e-09
-6.5772e-09
-6.62769e-09
-6.67897e-09
-6.73105e-09
-6.78395e-09
-6.83768e-09
-6.89228e-09
-1.94424e-12
-5.95691e-09
-5.99818e-09
-6.04003e-09
-6.08246e-09
-6.1255e-09
-6.16915e-09
-6.21342e-09
-6.25834e-09
-6.30391e-09
-6.35015e-09
-6.39707e-09
-6.44469e-09
-6.49302e-09
-6.54209e-09
-6.5919e-09
-6.64248e-09
-6.69383e-09
-6.74599e-09
-6.79897e-09
-6.85279e-09
-6.90746e-09
-1.96571e-12
-5.9708e-09
-6.01215e-09
-6.05407e-09
-6.09658e-09
-6.13969e-09
-6.18342e-09
-6.22776e-09
-6.27276e-09
-6.3184e-09
-6.36472e-09
-6.41172e-09
-6.45942e-09
-6.50784e-09
-6.55698e-09
-6.60687e-09
-6.65753e-09
-6.70898e-09
-6.76122e-09
-6.81428e-09
-6.86818e-09
-6.92295e-09
-1.98718e-12
-6.2025e-09
-6.24535e-09
-6.2888e-09
-6.33286e-09
-6.37754e-09
-6.42285e-09
-6.46881e-09
-6.51544e-09
-6.56274e-09
-6.61073e-09
-6.65944e-09
-6.70886e-09
-6.75902e-09
-6.80994e-09
-6.86164e-09
-6.91412e-09
-6.96741e-09
-7.02153e-09
-7.0765e-09
-7.13233e-09
-7.18905e-09
-2.29561e-12
)
;

boundaryField
{
    inlet
    {
        type            calculated;
        value           uniform 0;
    }
    outlet2
    {
        type            calculated;
        value           uniform 0;
    }
    outlet1
    {
        type            calculated;
        value           uniform 0;
    }
    wall
    {
        type            calculated;
        value           uniform 0;
    }
    symmetryBottom
    {
        type            symmetry;
    }
    symmetryZ0
    {
        type            symmetry;
    }
    symmetryZ05
    {
        type            symmetry;
    }
}


// ************************************************************************* //
