/*--------------------------------*- C++ -*----------------------------------*\
| =========                 |                                                 |
| \\      /  F ield         | OpenFOAM: The Open Source CFD Toolbox           |
|  \\    /   O peration     | Version:  2412                                  |
|   \\  /    A nd           | Website:  www.openfoam.com                      |
|    \\/     M anipulation  |                                                 |
\*---------------------------------------------------------------------------*/
FoamFile
{
    version     2.0;
    format      ascii;
    arch        "LSB;label=32;scalar=64";
    class       volScalarField;
    location    "1.68142e-07";
    object      rho_dof1;
}
// * * * * * * * * * * * * * * * * * * * * * * * * * * * * * * * * * * * * * //

dimensions      [0 0 0 0 0 0 0];

internalField   nonuniform List<scalar> 
625
(
2.21998e-06
1.64438e-18
-3.13717e-10
2.21998e-06
5.44699e-22
-2.40682e-10
2.21998e-06
1.28243e-22
-2.65397e-10
2.21998e-06
8.33229e-22
-2.65397e-10
2.21998e-06
7.52769e-22
-2.65397e-10
2.21998e-06
4.3251e-22
-2.65397e-10
2.21998e-06
8.81202e-22
-2.65397e-10
2.21998e-06
6.24845e-22
-2.65397e-10
2.21998e-06
6.40581e-22
-2.65397e-10
2.21998e-06
5.6069e-22
-2.65397e-10
2.21998e-06
5.76744e-22
-2.65397e-10
2.21998e-06
5.12718e-22
-2.65397e-10
2.21998e-06
8.01121e-22
-2.65397e-10
2.21998e-06
4.80673e-22
-2.65397e-10
2.21998e-06
3.68357e-22
-2.65397e-10
2.21998e-06
3.84348e-22
-2.65397e-10
2.21998e-06
-3.8473e-22
-2.65397e-10
2.21998e-06
1.12151e-21
-2.65397e-10
2.21998e-06
3.36438e-22
-2.65397e-10
2.21998e-06
4.32574e-22
-2.65397e-10
2.21998e-06
9.61283e-22
-2.65397e-10
2.21998e-06
2.72096e-22
-2.65397e-10
2.21998e-06
1.00938e-21
-2.65397e-10
2.21998e-06
6.39649e-23
-2.65397e-10
2.22026e-06
1.00944e-21
-4.621e-12
-6.1317e-09
-6.17406e-09
-6.21701e-09
-6.26055e-09
-6.30472e-09
-6.34951e-09
-6.39494e-09
-6.44102e-09
-6.48777e-09
-6.53521e-09
-6.58335e-09
-6.6322e-09
-6.68178e-09
-6.73211e-09
-6.7832e-09
-6.83508e-09
-6.88775e-09
-6.94124e-09
-6.99557e-09
-7.05076e-09
-7.10682e-09
-3.55065e-07
-6.14364e-09
-6.18616e-09
-6.22928e-09
-6.273e-09
-6.31734e-09
-6.36231e-09
-6.40792e-09
-6.45419e-09
-6.50114e-09
-6.54878e-09
-6.59711e-09
-6.64617e-09
-6.69596e-09
-6.7465e-09
-6.79782e-09
-6.84991e-09
-6.90282e-09
-6.95654e-09
-7.01111e-09
-7.06654e-09
-7.12286e-09
6.97641e-09
-6.14329e-09
-6.18581e-09
-6.22892e-09
-6.27263e-09
-6.31697e-09
-6.36193e-09
-6.40754e-09
-6.45381e-09
-6.50075e-09
-6.54837e-09
-6.59671e-09
-6.64576e-09
-6.69554e-09
-6.74608e-09
-6.79739e-09
-6.84948e-09
-6.90237e-09
-6.95609e-09
-7.01065e-09
-7.06608e-09
-7.12239e-09
6.51691e-09
-6.14294e-09
-6.18545e-09
-6.22856e-09
-6.27227e-09
-6.3166e-09
-6.36155e-09
-6.40716e-09
-6.45342e-09
-6.50035e-09
-6.54797e-09
-6.5963e-09
-6.64535e-09
-6.69512e-09
-6.74566e-09
-6.79695e-09
-6.84904e-09
-6.90193e-09
-6.95564e-09
-7.0102e-09
-7.06561e-09
-7.12191e-09
6.5425e-09
-6.14259e-09
-6.1851e-09
-6.22819e-09
-6.2719e-09
-6.31622e-09
-6.36118e-09
-6.40677e-09
-6.45303e-09
-6.49996e-09
-6.54758e-09
-6.59589e-09
-6.64493e-09
-6.69471e-09
-6.74523e-09
-6.79652e-09
-6.8486e-09
-6.90149e-09
-6.95519e-09
-7.00974e-09
-7.06515e-09
-7.12145e-09
6.56872e-09
-6.14224e-09
-6.18474e-09
-6.22784e-09
-6.27153e-09
-6.31585e-09
-6.3608e-09
-6.40639e-09
-6.45264e-09
-6.49957e-09
-6.54718e-09
-6.59549e-09
-6.64452e-09
-6.69429e-09
-6.74481e-09
-6.79609e-09
-6.84817e-09
-6.90104e-09
-6.95474e-09
-7.00928e-09
-7.06469e-09
-7.12097e-09
6.59558e-09
-6.14189e-09
-6.18438e-09
-6.22747e-09
-6.27117e-09
-6.31548e-09
-6.36042e-09
-6.40601e-09
-6.45226e-09
-6.49917e-09
-6.54678e-09
-6.59509e-09
-6.64411e-09
-6.69387e-09
-6.74438e-09
-6.79566e-09
-6.84773e-09
-6.9006e-09
-6.95429e-09
-7.00882e-09
-7.06422e-09
-7.1205e-09
6.62306e-09
-6.14153e-09
-6.18402e-09
-6.22711e-09
-6.2708e-09
-6.31511e-09
-6.36005e-09
-6.40563e-09
-6.45187e-09
-6.49878e-09
-6.54638e-09
-6.59468e-09
-6.6437e-09
-6.69345e-09
-6.74396e-09
-6.79523e-09
-6.84729e-09
-6.90016e-09
-6.95384e-09
-7.00837e-09
-7.06375e-09
-7.12002e-09
6.65117e-09
-6.14118e-09
-6.18367e-09
-6.22675e-09
-6.27043e-09
-6.31474e-09
-6.35967e-09
-6.40525e-09
-6.45148e-09
-6.49838e-09
-6.54598e-09
-6.59427e-09
-6.64329e-09
-6.69304e-09
-6.74353e-09
-6.7948e-09
-6.84686e-09
-6.89971e-09
-6.95339e-09
-7.00791e-09
-7.06329e-09
-7.11956e-09
6.67991e-09
-6.14083e-09
-6.18331e-09
-6.22639e-09
-6.27007e-09
-6.31436e-09
-6.35929e-09
-6.40486e-09
-6.45109e-09
-6.49799e-09
-6.54558e-09
-6.59387e-09
-6.64288e-09
-6.69262e-09
-6.74311e-09
-6.79437e-09
-6.84642e-09
-6.89927e-09
-6.95293e-09
-7.00745e-09
-7.06282e-09
-7.11908e-09
6.70928e-09
-6.14048e-09
-6.18296e-09
-6.22602e-09
-6.2697e-09
-6.31399e-09
-6.35891e-09
-6.40448e-09
-6.4507e-09
-6.4976e-09
-6.54518e-09
-6.59346e-09
-6.64247e-09
-6.6922e-09
-6.74269e-09
-6.79394e-09
-6.84598e-09
-6.89882e-09
-6.95249e-09
-7.00699e-09
-7.06236e-09
-7.11861e-09
6.73928e-09
-6.1401e-09
-6.18257e-09
-6.22564e-09
-6.26931e-09
-6.3136e-09
-6.35851e-09
-6.40407e-09
-6.45029e-09
-6.49718e-09
-6.54475e-09
-6.59303e-09
-6.64203e-09
-6.69175e-09
-6.74224e-09
-6.79348e-09
-6.84551e-09
-6.89835e-09
-6.95201e-09
-7.0065e-09
-7.06187e-09
-7.1181e-09
6.76213e-09
-6.13969e-09
-6.18216e-09
-6.22522e-09
-6.26888e-09
-6.31316e-09
-6.35808e-09
-6.40362e-09
-6.44984e-09
-6.49672e-09
-6.54429e-09
-6.59256e-09
-6.64155e-09
-6.69127e-09
-6.74174e-09
-6.79298e-09
-6.845e-09
-6.89783e-09
-6.95148e-09
-7.00597e-09
-7.06132e-09
-7.11756e-09
6.77415e-09
-6.13928e-09
-6.18174e-09
-6.2248e-09
-6.26846e-09
-6.31273e-09
-6.35763e-09
-6.40318e-09
-6.44938e-09
-6.49626e-09
-6.54382e-09
-6.59209e-09
-6.64107e-09
-6.69078e-09
-6.74125e-09
-6.79248e-09
-6.8445e-09
-6.89731e-09
-6.95096e-09
-7.00544e-09
-7.06078e-09
-7.117e-09
6.78629e-09
-6.13887e-09
-6.18133e-09
-6.22438e-09
-6.26803e-09
-6.3123e-09
-6.35719e-09
-6.40273e-09
-6.44893e-09
-6.4958e-09
-6.54336e-09
-6.59161e-09
-6.64059e-09
-6.69029e-09
-6.74075e-09
-6.79198e-09
-6.84399e-09
-6.89679e-09
-6.95043e-09
-7.0049e-09
-7.06024e-09
-7.11645e-09
6.79873e-09
-6.13846e-09
-6.18092e-09
-6.22395e-09
-6.2676e-09
-6.31186e-09
-6.35676e-09
-6.40229e-09
-6.44848e-09
-6.49534e-09
-6.54289e-09
-6.59114e-09
-6.64011e-09
-6.68981e-09
-6.74026e-09
-6.79148e-09
-6.84347e-09
-6.89628e-09
-6.9499e-09
-7.00437e-09
-7.05969e-09
-7.1159e-09
6.81146e-09
-6.13805e-09
-6.1805e-09
-6.22354e-09
-6.26717e-09
-6.31143e-09
-6.35631e-09
-6.40184e-09
-6.44803e-09
-6.49489e-09
-6.54242e-09
-6.59067e-09
-6.63963e-09
-6.68932e-09
-6.73977e-09
-6.79097e-09
-6.84297e-09
-6.89576e-09
-6.94938e-09
-7.00383e-09
-7.05916e-09
-7.11535e-09
6.8245e-09
-6.13764e-09
-6.18008e-09
-6.22311e-09
-6.26675e-09
-6.311e-09
-6.35587e-09
-6.4014e-09
-6.44758e-09
-6.49442e-09
-6.54196e-09
-6.5902e-09
-6.63915e-09
-6.68884e-09
-6.73927e-09
-6.79047e-09
-6.84246e-09
-6.89524e-09
-6.94885e-09
-7.0033e-09
-7.05861e-09
-7.1148e-09
6.83784e-09
-6.13723e-09
-6.17967e-09
-6.22269e-09
-6.26632e-09
-6.31056e-09
-6.35544e-09
-6.40095e-09
-6.44712e-09
-6.49397e-09
-6.54149e-09
-6.58972e-09
-6.63867e-09
-6.68835e-09
-6.73878e-09
-6.78997e-09
-6.84195e-09
-6.89473e-09
-6.94833e-09
-7.00277e-09
-7.05807e-09
-7.11425e-09
6.85147e-09
-6.13682e-09
-6.17925e-09
-6.22227e-09
-6.26589e-09
-6.31013e-09
-6.35499e-09
-6.40051e-09
-6.44667e-09
-6.4935e-09
-6.54103e-09
-6.58925e-09
-6.63819e-09
-6.68786e-09
-6.73828e-09
-6.78947e-09
-6.84144e-09
-6.89421e-09
-6.94781e-09
-7.00223e-09
-7.05752e-09
-7.1137e-09
6.86541e-09
-6.13641e-09
-6.17883e-09
-6.22185e-09
-6.26546e-09
-6.30969e-09
-6.35456e-09
-6.40006e-09
-6.44622e-09
-6.49305e-09
-6.54056e-09
-6.58878e-09
-6.63771e-09
-6.68737e-09
-6.73779e-09
-6.78897e-09
-6.84093e-09
-6.8937e-09
-6.94727e-09
-7.0017e-09
-7.05698e-09
-7.11314e-09
6.87964e-09
-6.136e-09
-6.17842e-09
-6.22142e-09
-6.26504e-09
-6.30926e-09
-6.35411e-09
-6.39961e-09
-6.44577e-09
-6.49259e-09
-6.5401e-09
-6.58831e-09
-6.63723e-09
-6.68689e-09
-6.73729e-09
-6.78847e-09
-6.84042e-09
-6.89317e-09
-6.94675e-09
-7.00117e-09
-7.05644e-09
-7.1126e-09
6.89418e-09
-6.13559e-09
-6.178e-09
-6.22101e-09
-6.26461e-09
-6.30883e-09
-6.35367e-09
-6.39917e-09
-6.44531e-09
-6.49213e-09
-6.53963e-09
-6.58783e-09
-6.63675e-09
-6.6864e-09
-6.7368e-09
-6.78796e-09
-6.83991e-09
-6.89266e-09
-6.94623e-09
-7.00063e-09
-7.0559e-09
-7.11204e-09
6.90901e-09
-6.13518e-09
-6.17759e-09
-6.22058e-09
-6.26418e-09
-6.30839e-09
-6.35324e-09
-6.39872e-09
-6.44486e-09
-6.49167e-09
-6.53917e-09
-6.58736e-09
-6.63627e-09
-6.68592e-09
-6.7363e-09
-6.78746e-09
-6.8394e-09
-6.89214e-09
-6.9457e-09
-7.0001e-09
-7.05535e-09
-7.1115e-09
6.92414e-09
-6.13555e-09
-6.17796e-09
-6.22096e-09
-6.26457e-09
-6.30879e-09
-6.35363e-09
-6.39912e-09
-6.44527e-09
-6.49208e-09
-6.53958e-09
-6.58779e-09
-6.6367e-09
-6.68635e-09
-6.73675e-09
-6.78791e-09
-6.83986e-09
-6.8926e-09
-6.94617e-09
-7.00058e-09
-7.05584e-09
-7.11199e-09
7.18693e-09
)
;

boundaryField
{
    inlet
    {
        type            calculated;
        value           uniform 0;
    }
    outlet2
    {
        type            calculated;
        value           uniform 0;
    }
    outlet1
    {
        type            calculated;
        value           uniform 0;
    }
    wall
    {
        type            calculated;
        value           uniform 0;
    }
    symmetryBottom
    {
        type            symmetry;
    }
    symmetryZ0
    {
        type            symmetry;
    }
    symmetryZ05
    {
        type            symmetry;
    }
}


// ************************************************************************* //
