/*--------------------------------*- C++ -*----------------------------------*\
| =========                 |                                                 |
| \\      /  F ield         | OpenFOAM: The Open Source CFD Toolbox           |
|  \\    /   O peration     | Version:  2412                                  |
|   \\  /    A nd           | Website:  www.openfoam.com                      |
|    \\/     M anipulation  |                                                 |
\*---------------------------------------------------------------------------*/
FoamFile
{
    version     2.0;
    format      ascii;
    arch        "LSB;label=32;scalar=64";
    class       volVectorField;
    location    "1.68142e-07";
    object      rhoU_dof1;
}
// * * * * * * * * * * * * * * * * * * * * * * * * * * * * * * * * * * * * * //

dimensions      [0 0 0 0 0 0 0];

internalField   nonuniform List<vector> 
625
(
(0.00588947 4.92237e-08 4.64077e-07)
(-1.6423e-15 -3.39449e-16 4.5544e-07)
(-1.03779e-06 2.31581e-05 4.61596e-07)
(0.00588948 -2.25992e-07 4.64077e-07)
(-5.99254e-15 -1.8896e-16 4.5544e-07)
(-6.37963e-07 4.07327e-08 4.61247e-07)
(0.00588948 -2.25982e-07 4.64077e-07)
(-5.9934e-15 -1.89094e-16 4.5544e-07)
(-7.0347e-07 4.65517e-08 4.61247e-07)
(0.00588948 -2.25982e-07 4.64077e-07)
(-5.99235e-15 -1.89098e-16 4.5544e-07)
(-7.0347e-07 4.65517e-08 4.61247e-07)
(0.00588948 -2.25982e-07 4.64077e-07)
(-5.99235e-15 -1.891e-16 4.5544e-07)
(-7.0347e-07 4.65517e-08 4.61247e-07)
(0.00588948 -2.25982e-07 4.64077e-07)
(-5.99267e-15 -1.891e-16 4.5544e-07)
(-7.0347e-07 4.65517e-08 4.61247e-07)
(0.00588948 -2.25982e-07 4.64077e-07)
(-5.99254e-15 -1.89098e-16 4.5544e-07)
(-7.0347e-07 4.65517e-08 4.61247e-07)
(0.00588948 -2.25982e-07 4.64077e-07)
(-5.99274e-15 -1.89097e-16 4.5544e-07)
(-7.0347e-07 4.65517e-08 4.61247e-07)
(0.00588948 -2.25982e-07 4.64077e-07)
(-5.99235e-15 -1.89098e-16 4.5544e-07)
(-7.0347e-07 4.65517e-08 4.61247e-07)
(0.00588948 -2.25982e-07 4.64077e-07)
(-5.99294e-15 -1.891e-16 4.5544e-07)
(-7.0347e-07 4.65517e-08 4.61247e-07)
(0.00588948 -2.25982e-07 4.64077e-07)
(-5.99261e-15 -1.89098e-16 4.5544e-07)
(-7.0347e-07 4.65517e-08 4.61247e-07)
(0.00588948 -2.25982e-07 4.64077e-07)
(-5.99294e-15 -1.89099e-16 4.5544e-07)
(-7.0347e-07 4.65517e-08 4.61247e-07)
(0.00588948 -2.25982e-07 4.64077e-07)
(-5.99202e-15 -1.89098e-16 4.5544e-07)
(-7.0347e-07 4.65517e-08 4.61247e-07)
(0.00588948 -2.25982e-07 4.64077e-07)
(-5.99307e-15 -1.89095e-16 4.5544e-07)
(-7.0347e-07 4.65517e-08 4.61247e-07)
(0.00588948 -2.25982e-07 4.64077e-07)
(-5.99333e-15 -1.89095e-16 4.5544e-07)
(-7.0347e-07 4.65517e-08 4.61247e-07)
(0.00588948 -2.25982e-07 4.64077e-07)
(-5.993e-15 -1.89099e-16 4.5544e-07)
(-7.0347e-07 4.65517e-08 4.61247e-07)
(0.00588948 -2.25982e-07 4.64077e-07)
(-5.99477e-15 -1.89098e-16 4.5544e-07)
(-7.0347e-07 4.65517e-08 4.61247e-07)
(0.00588948 -2.25982e-07 4.64077e-07)
(-5.99117e-15 -1.89096e-16 4.5544e-07)
(-7.0347e-07 4.65517e-08 4.61247e-07)
(0.00588948 -2.25982e-07 4.64077e-07)
(-5.99274e-15 -1.89098e-16 4.5544e-07)
(-7.0347e-07 4.65517e-08 4.61247e-07)
(0.00588948 -2.25982e-07 4.64077e-07)
(-5.99313e-15 -1.89098e-16 4.5544e-07)
(-7.0347e-07 4.65517e-08 4.61247e-07)
(0.00588948 -2.25982e-07 4.64077e-07)
(-5.99162e-15 -1.89096e-16 4.5544e-07)
(-7.0347e-07 4.65517e-08 4.61247e-07)
(0.00588948 -2.25982e-07 4.64077e-07)
(-5.99333e-15 -1.89098e-16 4.5544e-07)
(-7.0347e-07 4.65517e-08 4.61247e-07)
(0.00588948 -2.25982e-07 4.64077e-07)
(-5.99143e-15 -1.89099e-16 4.5544e-07)
(-7.0347e-07 4.65517e-08 4.61247e-07)
(0.00588948 -2.25982e-07 4.64077e-07)
(-5.99359e-15 -1.89098e-16 4.5544e-07)
(-7.0347e-07 4.65517e-08 4.61247e-07)
(0.00589021 -2.75202e-07 4.64135e-07)
(-5.99865e-15 -1.25415e-16 4.55498e-07)
(-1.22408e-08 8.24519e-10 4.5544e-07)
(-1.62708e-05 -2.78206e-10 4.62266e-07)
(-1.63832e-05 -2.82063e-10 4.62296e-07)
(-1.64971e-05 -2.86002e-10 4.62326e-07)
(-1.66126e-05 -2.90024e-10 4.62356e-07)
(-1.67298e-05 -2.94131e-10 4.62387e-07)
(-1.68486e-05 -2.98326e-10 4.62419e-07)
(-1.69692e-05 -3.02612e-10 4.62451e-07)
(-1.70914e-05 -3.0699e-10 4.62483e-07)
(-1.72155e-05 -3.11464e-10 4.62516e-07)
(-1.73413e-05 -3.16037e-10 4.62549e-07)
(-1.7469e-05 -3.20711e-10 4.62583e-07)
(-1.75986e-05 -3.2549e-10 4.62617e-07)
(-1.77302e-05 -3.30376e-10 4.62652e-07)
(-1.78637e-05 -3.35373e-10 4.62687e-07)
(-1.79992e-05 -3.40484e-10 4.62723e-07)
(-1.81369e-05 -3.45714e-10 4.62759e-07)
(-1.82766e-05 -3.51064e-10 4.62796e-07)
(-1.84185e-05 -3.5654e-10 4.62834e-07)
(-1.85626e-05 -3.62144e-10 4.62872e-07)
(-1.8709e-05 -3.67883e-10 4.62911e-07)
(-1.88578e-05 -3.73758e-10 4.6295e-07)
(-0.00103488 2.74798e-05 4.63882e-07)
(-1.63054e-05 7.19909e-10 4.60191e-07)
(-1.64183e-05 7.29896e-10 4.60207e-07)
(-1.65327e-05 7.40092e-10 4.60222e-07)
(-1.66487e-05 7.50503e-10 4.60238e-07)
(-1.67664e-05 7.61136e-10 4.60254e-07)
(-1.68858e-05 7.71996e-10 4.6027e-07)
(-1.70068e-05 7.8309e-10 4.60287e-07)
(-1.71296e-05 7.94426e-10 4.60303e-07)
(-1.72542e-05 8.06009e-10 4.6032e-07)
(-1.73807e-05 8.17847e-10 4.60338e-07)
(-1.75089e-05 8.29948e-10 4.60355e-07)
(-1.76391e-05 8.4232e-10 4.60373e-07)
(-1.77713e-05 8.5497e-10 4.60391e-07)
(-1.79054e-05 8.67908e-10 4.60409e-07)
(-1.80416e-05 8.81141e-10 4.60427e-07)
(-1.81799e-05 8.94679e-10 4.60446e-07)
(-1.83203e-05 9.08532e-10 4.60465e-07)
(-1.84629e-05 9.22709e-10 4.60485e-07)
(-1.86077e-05 9.37221e-10 4.60504e-07)
(-1.87548e-05 9.52077e-10 4.60524e-07)
(-1.89043e-05 9.6729e-10 4.60545e-07)
(1.85695e-05 2.04837e-07 4.61137e-07)
(-1.63045e-05 7.1992e-10 4.6016e-07)
(-1.64173e-05 7.29907e-10 4.60175e-07)
(-1.65317e-05 7.40104e-10 4.6019e-07)
(-1.66478e-05 7.50516e-10 4.60206e-07)
(-1.67654e-05 7.61149e-10 4.60222e-07)
(-1.68848e-05 7.72009e-10 4.60238e-07)
(-1.70058e-05 7.83104e-10 4.60254e-07)
(-1.71286e-05 7.94439e-10 4.60271e-07)
(-1.72532e-05 8.06023e-10 4.60287e-07)
(-1.73796e-05 8.17861e-10 4.60304e-07)
(-1.75079e-05 8.29963e-10 4.60321e-07)
(-1.76381e-05 8.42334e-10 4.60339e-07)
(-1.77702e-05 8.54985e-10 4.60357e-07)
(-1.79043e-05 8.67923e-10 4.60375e-07)
(-1.80405e-05 8.81157e-10 4.60393e-07)
(-1.81787e-05 8.94695e-10 4.60411e-07)
(-1.83191e-05 9.08549e-10 4.6043e-07)
(-1.84617e-05 9.22726e-10 4.60449e-07)
(-1.86065e-05 9.37238e-10 4.60469e-07)
(-1.87536e-05 9.52095e-10 4.60489e-07)
(-1.8903e-05 9.67308e-10 4.60509e-07)
(1.72852e-05 6.35996e-08 4.61142e-07)
(-1.63035e-05 7.1992e-10 4.60129e-07)
(-1.64164e-05 7.29907e-10 4.60144e-07)
(-1.65308e-05 7.40104e-10 4.60159e-07)
(-1.66468e-05 7.50516e-10 4.60174e-07)
(-1.67644e-05 7.61149e-10 4.6019e-07)
(-1.68838e-05 7.72009e-10 4.60206e-07)
(-1.70048e-05 7.83104e-10 4.60222e-07)
(-1.71276e-05 7.94439e-10 4.60238e-07)
(-1.72521e-05 8.06023e-10 4.60254e-07)
(-1.73785e-05 8.17861e-10 4.60271e-07)
(-1.75068e-05 8.29963e-10 4.60288e-07)
(-1.7637e-05 8.42335e-10 4.60305e-07)
(-1.77691e-05 8.54985e-10 4.60323e-07)
(-1.79032e-05 8.67923e-10 4.60341e-07)
(-1.80393e-05 8.81157e-10 4.60359e-07)
(-1.81776e-05 8.94695e-10 4.60377e-07)
(-1.83179e-05 9.08548e-10 4.60395e-07)
(-1.84605e-05 9.22726e-10 4.60414e-07)
(-1.86053e-05 9.37238e-10 4.60433e-07)
(-1.87524e-05 9.52095e-10 4.60453e-07)
(-1.89018e-05 9.67307e-10 4.60473e-07)
(1.73535e-05 6.49411e-08 4.61147e-07)
(-1.63026e-05 7.1992e-10 4.60098e-07)
(-1.64154e-05 7.29907e-10 4.60113e-07)
(-1.65298e-05 7.40104e-10 4.60128e-07)
(-1.66458e-05 7.50516e-10 4.60143e-07)
(-1.67634e-05 7.61148e-10 4.60158e-07)
(-1.68828e-05 7.72009e-10 4.60174e-07)
(-1.70038e-05 7.83103e-10 4.60189e-07)
(-1.71265e-05 7.94439e-10 4.60205e-07)
(-1.72511e-05 8.06022e-10 4.60222e-07)
(-1.73775e-05 8.17861e-10 4.60238e-07)
(-1.75057e-05 8.29962e-10 4.60255e-07)
(-1.76359e-05 8.42334e-10 4.60272e-07)
(-1.7768e-05 8.54985e-10 4.60289e-07)
(-1.7902e-05 8.67923e-10 4.60307e-07)
(-1.80382e-05 8.81157e-10 4.60324e-07)
(-1.81764e-05 8.94695e-10 4.60342e-07)
(-1.83168e-05 9.08549e-10 4.60361e-07)
(-1.84593e-05 9.22726e-10 4.60379e-07)
(-1.86041e-05 9.37238e-10 4.60398e-07)
(-1.87511e-05 9.52094e-10 4.60417e-07)
(-1.89005e-05 9.67308e-10 4.60437e-07)
(1.74234e-05 6.62826e-08 4.61152e-07)
(-1.63017e-05 7.1992e-10 4.60067e-07)
(-1.64145e-05 7.29907e-10 4.60082e-07)
(-1.65289e-05 7.40104e-10 4.60096e-07)
(-1.66448e-05 7.50515e-10 4.60111e-07)
(-1.67625e-05 7.61148e-10 4.60126e-07)
(-1.68817e-05 7.72009e-10 4.60142e-07)
(-1.70028e-05 7.83103e-10 4.60157e-07)
(-1.71255e-05 7.94439e-10 4.60173e-07)
(-1.72501e-05 8.06023e-10 4.60189e-07)
(-1.73764e-05 8.17861e-10 4.60205e-07)
(-1.75046e-05 8.29962e-10 4.60222e-07)
(-1.76348e-05 8.42334e-10 4.60238e-07)
(-1.77668e-05 8.54985e-10 4.60255e-07)
(-1.79009e-05 8.67923e-10 4.60272e-07)
(-1.8037e-05 8.81156e-10 4.6029e-07)
(-1.81752e-05 8.94695e-10 4.60308e-07)
(-1.83156e-05 9.08548e-10 4.60326e-07)
(-1.84581e-05 9.22726e-10 4.60344e-07)
(-1.86028e-05 9.37237e-10 4.60363e-07)
(-1.87499e-05 9.52095e-10 4.60382e-07)
(-1.88993e-05 9.67308e-10 4.60401e-07)
(1.74951e-05 6.76241e-08 4.61157e-07)
(-1.63007e-05 7.1992e-10 4.60036e-07)
(-1.64135e-05 7.29907e-10 4.6005e-07)
(-1.65279e-05 7.40104e-10 4.60065e-07)
(-1.66439e-05 7.50515e-10 4.60079e-07)
(-1.67615e-05 7.61148e-10 4.60094e-07)
(-1.68807e-05 7.72009e-10 4.60109e-07)
(-1.70017e-05 7.83103e-10 4.60125e-07)
(-1.71245e-05 7.94439e-10 4.6014e-07)
(-1.7249e-05 8.06022e-10 4.60156e-07)
(-1.73753e-05 8.17861e-10 4.60172e-07)
(-1.75036e-05 8.29962e-10 4.60188e-07)
(-1.76337e-05 8.42334e-10 4.60205e-07)
(-1.77657e-05 8.54985e-10 4.60221e-07)
(-1.78998e-05 8.67923e-10 4.60238e-07)
(-1.80359e-05 8.81156e-10 4.60256e-07)
(-1.81741e-05 8.94695e-10 4.60273e-07)
(-1.83144e-05 9.08548e-10 4.60291e-07)
(-1.84569e-05 9.22726e-10 4.60309e-07)
(-1.86016e-05 9.37237e-10 4.60327e-07)
(-1.87486e-05 9.52094e-10 4.60346e-07)
(-1.8898e-05 9.67307e-10 4.60365e-07)
(1.75684e-05 6.89655e-08 4.61162e-07)
(-1.62998e-05 7.1992e-10 4.60005e-07)
(-1.64126e-05 7.29907e-10 4.60019e-07)
(-1.65269e-05 7.40104e-10 4.60033e-07)
(-1.66429e-05 7.50515e-10 4.60048e-07)
(-1.67605e-05 7.61148e-10 4.60062e-07)
(-1.68797e-05 7.72009e-10 4.60077e-07)
(-1.70007e-05 7.83103e-10 4.60092e-07)
(-1.71234e-05 7.94439e-10 4.60108e-07)
(-1.72479e-05 8.06022e-10 4.60123e-07)
(-1.73743e-05 8.17861e-10 4.60139e-07)
(-1.75025e-05 8.29962e-10 4.60155e-07)
(-1.76326e-05 8.42334e-10 4.60171e-07)
(-1.77646e-05 8.54985e-10 4.60188e-07)
(-1.78987e-05 8.67923e-10 4.60204e-07)
(-1.80347e-05 8.81156e-10 4.60221e-07)
(-1.81729e-05 8.94695e-10 4.60239e-07)
(-1.83132e-05 9.08548e-10 4.60256e-07)
(-1.84557e-05 9.22725e-10 4.60274e-07)
(-1.86004e-05 9.37238e-10 4.60292e-07)
(-1.87474e-05 9.52094e-10 4.6031e-07)
(-1.88967e-05 9.67307e-10 4.60329e-07)
(1.76434e-05 7.0307e-08 4.61167e-07)
(-1.62989e-05 7.1992e-10 4.59974e-07)
(-1.64116e-05 7.29907e-10 4.59988e-07)
(-1.6526e-05 7.40104e-10 4.60002e-07)
(-1.66419e-05 7.50515e-10 4.60016e-07)
(-1.67595e-05 7.61148e-10 4.60031e-07)
(-1.68787e-05 7.72009e-10 4.60045e-07)
(-1.69997e-05 7.83103e-10 4.6006e-07)
(-1.71224e-05 7.94439e-10 4.60075e-07)
(-1.72469e-05 8.06022e-10 4.6009e-07)
(-1.73732e-05 8.17861e-10 4.60106e-07)
(-1.75014e-05 8.29962e-10 4.60122e-07)
(-1.76315e-05 8.42334e-10 4.60138e-07)
(-1.77635e-05 8.54985e-10 4.60154e-07)
(-1.78975e-05 8.67922e-10 4.6017e-07)
(-1.80336e-05 8.81156e-10 4.60187e-07)
(-1.81718e-05 8.94695e-10 4.60204e-07)
(-1.8312e-05 9.08548e-10 4.60221e-07)
(-1.84545e-05 9.22726e-10 4.60239e-07)
(-1.85992e-05 9.37237e-10 4.60257e-07)
(-1.87462e-05 9.52094e-10 4.60275e-07)
(-1.88955e-05 9.67307e-10 4.60293e-07)
(1.772e-05 7.16485e-08 4.61172e-07)
(-1.62979e-05 7.1992e-10 4.59943e-07)
(-1.64107e-05 7.29907e-10 4.59957e-07)
(-1.6525e-05 7.40104e-10 4.59971e-07)
(-1.66409e-05 7.50515e-10 4.59985e-07)
(-1.67585e-05 7.61148e-10 4.59999e-07)
(-1.68777e-05 7.72009e-10 4.60013e-07)
(-1.69987e-05 7.83103e-10 4.60028e-07)
(-1.71214e-05 7.94439e-10 4.60043e-07)
(-1.72458e-05 8.06022e-10 4.60058e-07)
(-1.73721e-05 8.17861e-10 4.60073e-07)
(-1.75003e-05 8.29962e-10 4.60088e-07)
(-1.76304e-05 8.42334e-10 4.60104e-07)
(-1.77624e-05 8.54985e-10 4.6012e-07)
(-1.78964e-05 8.67922e-10 4.60136e-07)
(-1.80325e-05 8.81156e-10 4.60153e-07)
(-1.81706e-05 8.94695e-10 4.60169e-07)
(-1.83108e-05 9.08548e-10 4.60186e-07)
(-1.84533e-05 9.22725e-10 4.60204e-07)
(-1.8598e-05 9.37237e-10 4.60221e-07)
(-1.87449e-05 9.52094e-10 4.60239e-07)
(-1.88942e-05 9.67307e-10 4.60257e-07)
(1.77984e-05 7.299e-08 4.61176e-07)
(-1.6297e-05 7.1992e-10 4.59912e-07)
(-1.64097e-05 7.29907e-10 4.59926e-07)
(-1.6524e-05 7.40103e-10 4.59939e-07)
(-1.664e-05 7.50515e-10 4.59953e-07)
(-1.67575e-05 7.61148e-10 4.59967e-07)
(-1.68767e-05 7.72009e-10 4.59981e-07)
(-1.69977e-05 7.83103e-10 4.59995e-07)
(-1.71203e-05 7.94439e-10 4.6001e-07)
(-1.72448e-05 8.06022e-10 4.60025e-07)
(-1.73711e-05 8.17861e-10 4.6004e-07)
(-1.74992e-05 8.29962e-10 4.60055e-07)
(-1.76293e-05 8.42334e-10 4.60071e-07)
(-1.77613e-05 8.54985e-10 4.60086e-07)
(-1.78953e-05 8.67922e-10 4.60102e-07)
(-1.80313e-05 8.81156e-10 4.60118e-07)
(-1.81694e-05 8.94695e-10 4.60135e-07)
(-1.83097e-05 9.08548e-10 4.60152e-07)
(-1.84521e-05 9.22725e-10 4.60169e-07)
(-1.85967e-05 9.37237e-10 4.60186e-07)
(-1.87437e-05 9.52094e-10 4.60203e-07)
(-1.8893e-05 9.67307e-10 4.60221e-07)
(1.78784e-05 7.43315e-08 4.61181e-07)
(-1.6296e-05 7.24168e-10 4.59879e-07)
(-1.64087e-05 7.34214e-10 4.59892e-07)
(-1.6523e-05 7.44471e-10 4.59906e-07)
(-1.66389e-05 7.54944e-10 4.59919e-07)
(-1.67564e-05 7.6564e-10 4.59933e-07)
(-1.68756e-05 7.76564e-10 4.59947e-07)
(-1.69966e-05 7.87724e-10 4.59961e-07)
(-1.71192e-05 7.99127e-10 4.59976e-07)
(-1.72437e-05 8.10779e-10 4.5999e-07)
(-1.73699e-05 8.22687e-10 4.60005e-07)
(-1.74981e-05 8.3486e-10 4.6002e-07)
(-1.76281e-05 8.47305e-10 4.60035e-07)
(-1.77601e-05 8.6003e-10 4.60051e-07)
(-1.78941e-05 8.73044e-10 4.60066e-07)
(-1.80301e-05 8.86356e-10 4.60082e-07)
(-1.81682e-05 8.99975e-10 4.60098e-07)
(-1.83084e-05 9.13909e-10 4.60115e-07)
(-1.84508e-05 9.28171e-10 4.60131e-07)
(-1.85954e-05 9.42768e-10 4.60148e-07)
(-1.87424e-05 9.57713e-10 4.60166e-07)
(-1.88916e-05 9.73015e-10 4.60183e-07)
(1.79395e-05 7.42588e-08 4.6118e-07)
(-1.62949e-05 7.34483e-10 4.59844e-07)
(-1.64076e-05 7.44672e-10 4.59857e-07)
(-1.65219e-05 7.55075e-10 4.5987e-07)
(-1.66378e-05 7.65697e-10 4.59883e-07)
(-1.67553e-05 7.76545e-10 4.59897e-07)
(-1.68745e-05 7.87625e-10 4.59911e-07)
(-1.69954e-05 7.98944e-10 4.59924e-07)
(-1.7118e-05 8.10509e-10 4.59938e-07)
(-1.72425e-05 8.22327e-10 4.59953e-07)
(-1.73687e-05 8.34405e-10 4.59967e-07)
(-1.74968e-05 8.46751e-10 4.59982e-07)
(-1.76268e-05 8.59373e-10 4.59997e-07)
(-1.77588e-05 8.7228e-10 4.60012e-07)
(-1.78927e-05 8.85479e-10 4.60027e-07)
(-1.80287e-05 8.98981e-10 4.60043e-07)
(-1.81668e-05 9.12793e-10 4.60059e-07)
(-1.8307e-05 9.26927e-10 4.60075e-07)
(-1.84494e-05 9.41391e-10 4.60091e-07)
(-1.8594e-05 9.56196e-10 4.60108e-07)
(-1.87409e-05 9.71354e-10 4.60125e-07)
(-1.88902e-05 9.86875e-10 4.60142e-07)
(1.79722e-05 7.2107e-08 4.61158e-07)
(-1.62938e-05 7.44812e-10 4.59809e-07)
(-1.64065e-05 7.55145e-10 4.59821e-07)
(-1.65208e-05 7.65694e-10 4.59834e-07)
(-1.66366e-05 7.76466e-10 4.59847e-07)
(-1.67541e-05 7.87466e-10 4.5986e-07)
(-1.68733e-05 7.98702e-10 4.59874e-07)
(-1.69942e-05 8.1018e-10 4.59888e-07)
(-1.71168e-05 8.21908e-10 4.59901e-07)
(-1.72412e-05 8.33892e-10 4.59915e-07)
(-1.73675e-05 8.4614e-10 4.5993e-07)
(-1.74956e-05 8.5866e-10 4.59944e-07)
(-1.76256e-05 8.71459e-10 4.59959e-07)
(-1.77575e-05 8.84548e-10 4.59974e-07)
(-1.78914e-05 8.97933e-10 4.59989e-07)
(-1.80274e-05 9.11624e-10 4.60004e-07)
(-1.81655e-05 9.25631e-10 4.60019e-07)
(-1.83056e-05 9.39963e-10 4.60035e-07)
(-1.8448e-05 9.54631e-10 4.60051e-07)
(-1.85926e-05 9.69644e-10 4.60068e-07)
(-1.87395e-05 9.85015e-10 4.60084e-07)
(-1.88887e-05 1.00075e-09 4.60101e-07)
(1.80051e-05 6.98604e-08 4.61118e-07)
(-1.62927e-05 7.55157e-10 4.59773e-07)
(-1.64054e-05 7.65633e-10 4.59786e-07)
(-1.65196e-05 7.76329e-10 4.59798e-07)
(-1.66355e-05 7.8725e-10 4.59811e-07)
(-1.6753e-05 7.98404e-10 4.59824e-07)
(-1.68721e-05 8.09795e-10 4.59837e-07)
(-1.6993e-05 8.21433e-10 4.59851e-07)
(-1.71156e-05 8.33324e-10 4.59864e-07)
(-1.724e-05 8.45474e-10 4.59878e-07)
(-1.73662e-05 8.57892e-10 4.59892e-07)
(-1.74943e-05 8.70586e-10 4.59906e-07)
(-1.76243e-05 8.83563e-10 4.5992e-07)
(-1.77562e-05 8.96833e-10 4.59935e-07)
(-1.78901e-05 9.10404e-10 4.5995e-07)
(-1.80261e-05 9.24286e-10 4.59965e-07)
(-1.81641e-05 9.38487e-10 4.5998e-07)
(-1.83043e-05 9.53018e-10 4.59996e-07)
(-1.84466e-05 9.6789e-10 4.60011e-07)
(-1.85912e-05 9.83112e-10 4.60027e-07)
(-1.8738e-05 9.98696e-10 4.60043e-07)
(-1.88872e-05 1.01465e-09 4.6006e-07)
(1.80388e-05 6.75534e-08 4.61077e-07)
(-1.62916e-05 7.65516e-10 4.59738e-07)
(-1.64043e-05 7.76136e-10 4.5975e-07)
(-1.65185e-05 7.86978e-10 4.59762e-07)
(-1.66344e-05 7.98049e-10 4.59775e-07)
(-1.67518e-05 8.09355e-10 4.59788e-07)
(-1.6871e-05 8.20904e-10 4.59801e-07)
(-1.69918e-05 8.32701e-10 4.59814e-07)
(-1.71144e-05 8.44754e-10 4.59827e-07)
(-1.72388e-05 8.57071e-10 4.5984e-07)
(-1.7365e-05 8.6966e-10 4.59854e-07)
(-1.7493e-05 8.82527e-10 4.59868e-07)
(-1.7623e-05 8.95683e-10 4.59882e-07)
(-1.77549e-05 9.09135e-10 4.59896e-07)
(-1.78888e-05 9.22892e-10 4.59911e-07)
(-1.80247e-05 9.36964e-10 4.59926e-07)
(-1.81627e-05 9.5136e-10 4.59941e-07)
(-1.83029e-05 9.66091e-10 4.59956e-07)
(-1.84452e-05 9.81166e-10 4.59971e-07)
(-1.85898e-05 9.96597e-10 4.59987e-07)
(-1.87366e-05 1.01239e-09 4.60003e-07)
(-1.88858e-05 1.02857e-09 4.60019e-07)
(1.80732e-05 6.51861e-08 4.61037e-07)
(-1.62905e-05 7.75887e-10 4.59703e-07)
(-1.64032e-05 7.8665e-10 4.59714e-07)
(-1.65174e-05 7.9764e-10 4.59727e-07)
(-1.66332e-05 8.0886e-10 4.59739e-07)
(-1.67507e-05 8.2032e-10 4.59751e-07)
(-1.68698e-05 8.32025e-10 4.59764e-07)
(-1.69906e-05 8.43982e-10 4.59777e-07)
(-1.71132e-05 8.56199e-10 4.5979e-07)
(-1.72376e-05 8.68683e-10 4.59803e-07)
(-1.73637e-05 8.81442e-10 4.59816e-07)
(-1.74918e-05 8.94484e-10 4.5983e-07)
(-1.76217e-05 9.07818e-10 4.59844e-07)
(-1.77536e-05 9.21452e-10 4.59858e-07)
(-1.78875e-05 9.35396e-10 4.59872e-07)
(-1.80234e-05 9.49658e-10 4.59887e-07)
(-1.81614e-05 9.64249e-10 4.59901e-07)
(-1.83015e-05 9.79179e-10 4.59916e-07)
(-1.84438e-05 9.94459e-10 4.59931e-07)
(-1.85883e-05 1.0101e-09 4.59947e-07)
(-1.87352e-05 1.02611e-09 4.59962e-07)
(-1.88843e-05 1.04251e-09 4.59978e-07)
(1.81084e-05 6.27589e-08 4.60996e-07)
(-1.62894e-05 7.86269e-10 4.59667e-07)
(-1.64021e-05 7.97176e-10 4.59679e-07)
(-1.65163e-05 8.08313e-10 4.59691e-07)
(-1.66321e-05 8.19684e-10 4.59703e-07)
(-1.67495e-05 8.31297e-10 4.59715e-07)
(-1.68686e-05 8.43158e-10 4.59727e-07)
(-1.69895e-05 8.55275e-10 4.5974e-07)
(-1.7112e-05 8.67655e-10 4.59753e-07)
(-1.72363e-05 8.80306e-10 4.59766e-07)
(-1.73625e-05 8.93236e-10 4.59779e-07)
(-1.74905e-05 9.06453e-10 4.59792e-07)
(-1.76205e-05 9.19965e-10 4.59806e-07)
(-1.77523e-05 9.33781e-10 4.59819e-07)
(-1.78862e-05 9.47912e-10 4.59833e-07)
(-1.80221e-05 9.62365e-10 4.59847e-07)
(-1.816e-05 9.77151e-10 4.59862e-07)
(-1.83001e-05 9.92281e-10 4.59876e-07)
(-1.84424e-05 1.00777e-09 4.59891e-07)
(-1.85869e-05 1.02361e-09 4.59906e-07)
(-1.87337e-05 1.03984e-09 4.59921e-07)
(-1.88828e-05 1.05646e-09 4.59937e-07)
(1.81444e-05 6.02723e-08 4.60956e-07)
(-1.62884e-05 7.9666e-10 4.59632e-07)
(-1.6401e-05 8.07712e-10 4.59643e-07)
(-1.65152e-05 8.18996e-10 4.59655e-07)
(-1.66309e-05 8.30517e-10 4.59667e-07)
(-1.67484e-05 8.42283e-10 4.59679e-07)
(-1.68675e-05 8.54302e-10 4.59691e-07)
(-1.69883e-05 8.66579e-10 4.59703e-07)
(-1.71108e-05 8.79123e-10 4.59716e-07)
(-1.72351e-05 8.91941e-10 4.59728e-07)
(-1.73613e-05 9.05041e-10 4.59741e-07)
(-1.74893e-05 9.18433e-10 4.59754e-07)
(-1.76192e-05 9.32124e-10 4.59767e-07)
(-1.7751e-05 9.46122e-10 4.59781e-07)
(-1.78849e-05 9.6044e-10 4.59794e-07)
(-1.80207e-05 9.75084e-10 4.59808e-07)
(-1.81587e-05 9.90066e-10 4.59822e-07)
(-1.82988e-05 1.0054e-09 4.59837e-07)
(-1.8441e-05 1.02108e-09 4.59851e-07)
(-1.85855e-05 1.03714e-09 4.59866e-07)
(-1.87323e-05 1.05358e-09 4.59881e-07)
(-1.88814e-05 1.07042e-09 4.59896e-07)
(1.81811e-05 5.77265e-08 4.60915e-07)
(-1.62873e-05 8.0706e-10 4.59596e-07)
(-1.63999e-05 8.18257e-10 4.59608e-07)
(-1.6514e-05 8.29687e-10 4.59619e-07)
(-1.66298e-05 8.41359e-10 4.59631e-07)
(-1.67472e-05 8.53279e-10 4.59642e-07)
(-1.68663e-05 8.65454e-10 4.59654e-07)
(-1.69871e-05 8.77892e-10 4.59666e-07)
(-1.71096e-05 8.90599e-10 4.59678e-07)
(-1.72339e-05 9.03584e-10 4.59691e-07)
(-1.736e-05 9.16856e-10 4.59703e-07)
(-1.7488e-05 9.30422e-10 4.59716e-07)
(-1.76179e-05 9.44292e-10 4.59729e-07)
(-1.77497e-05 9.58474e-10 4.59742e-07)
(-1.78835e-05 9.72977e-10 4.59756e-07)
(-1.80194e-05 9.87813e-10 4.59769e-07)
(-1.81573e-05 1.00299e-09 4.59783e-07)
(-1.82974e-05 1.01852e-09 4.59797e-07)
(-1.84396e-05 1.03441e-09 4.59811e-07)
(-1.85841e-05 1.05068e-09 4.59825e-07)
(-1.87308e-05 1.06734e-09 4.5984e-07)
(-1.88799e-05 1.08439e-09 4.59855e-07)
(1.82185e-05 5.51218e-08 4.60875e-07)
(-1.62862e-05 8.17467e-10 4.59561e-07)
(-1.63988e-05 8.28808e-10 4.59572e-07)
(-1.65129e-05 8.40386e-10 4.59583e-07)
(-1.66287e-05 8.52208e-10 4.59594e-07)
(-1.67461e-05 8.64282e-10 4.59606e-07)
(-1.68651e-05 8.76614e-10 4.59617e-07)
(-1.69859e-05 8.89212e-10 4.59629e-07)
(-1.71084e-05 9.02083e-10 4.59641e-07)
(-1.72327e-05 9.15236e-10 4.59653e-07)
(-1.73588e-05 9.28679e-10 4.59666e-07)
(-1.74868e-05 9.4242e-10 4.59678e-07)
(-1.76166e-05 9.56468e-10 4.59691e-07)
(-1.77484e-05 9.70833e-10 4.59704e-07)
(-1.78822e-05 9.85524e-10 4.59717e-07)
(-1.80181e-05 1.00055e-09 4.5973e-07)
(-1.8156e-05 1.01592e-09 4.59743e-07)
(-1.8296e-05 1.03165e-09 4.59757e-07)
(-1.84382e-05 1.04775e-09 4.59771e-07)
(-1.85827e-05 1.06423e-09 4.59785e-07)
(-1.87294e-05 1.0811e-09 4.59799e-07)
(-1.88784e-05 1.09837e-09 4.59814e-07)
(1.82568e-05 5.24588e-08 4.60834e-07)
(-1.62851e-05 8.2788e-10 4.59526e-07)
(-1.63976e-05 8.39365e-10 4.59536e-07)
(-1.65118e-05 8.5109e-10 4.59547e-07)
(-1.66275e-05 8.63063e-10 4.59558e-07)
(-1.67449e-05 8.75291e-10 4.59569e-07)
(-1.68639e-05 8.8778e-10 4.59581e-07)
(-1.69847e-05 9.00538e-10 4.59592e-07)
(-1.71072e-05 9.13573e-10 4.59604e-07)
(-1.72315e-05 9.26894e-10 4.59616e-07)
(-1.73575e-05 9.40508e-10 4.59628e-07)
(-1.74855e-05 9.54424e-10 4.5964e-07)
(-1.76153e-05 9.68651e-10 4.59653e-07)
(-1.77471e-05 9.83199e-10 4.59665e-07)
(-1.78809e-05 9.98077e-10 4.59678e-07)
(-1.80167e-05 1.0133e-09 4.59691e-07)
(-1.81546e-05 1.02886e-09 4.59704e-07)
(-1.82946e-05 1.04479e-09 4.59717e-07)
(-1.84368e-05 1.0611e-09 4.59731e-07)
(-1.85812e-05 1.07779e-09 4.59745e-07)
(-1.87279e-05 1.09487e-09 4.59759e-07)
(-1.8877e-05 1.11237e-09 4.59773e-07)
(1.82958e-05 4.97378e-08 4.60793e-07)
(-1.6284e-05 8.38296e-10 4.5949e-07)
(-1.63965e-05 8.49925e-10 4.59501e-07)
(-1.65107e-05 8.61799e-10 4.59511e-07)
(-1.66264e-05 8.73922e-10 4.59522e-07)
(-1.67438e-05 8.86304e-10 4.59533e-07)
(-1.68628e-05 8.9895e-10 4.59544e-07)
(-1.69835e-05 9.11869e-10 4.59555e-07)
(-1.7106e-05 9.25068e-10 4.59567e-07)
(-1.72302e-05 9.38557e-10 4.59578e-07)
(-1.73563e-05 9.52341e-10 4.5959e-07)
(-1.74842e-05 9.66433e-10 4.59602e-07)
(-1.76141e-05 9.80839e-10 4.59614e-07)
(-1.77458e-05 9.95569e-10 4.59627e-07)
(-1.78796e-05 1.01064e-09 4.59639e-07)
(-1.80154e-05 1.02604e-09 4.59652e-07)
(-1.81533e-05 1.04181e-09 4.59664e-07)
(-1.82932e-05 1.05794e-09 4.59678e-07)
(-1.84354e-05 1.07445e-09 4.59691e-07)
(-1.85798e-05 1.09135e-09 4.59704e-07)
(-1.87265e-05 1.10865e-09 4.59718e-07)
(-1.88755e-05 1.12636e-09 4.59732e-07)
(1.83355e-05 4.69593e-08 4.60753e-07)
(-1.62829e-05 8.48715e-10 4.59455e-07)
(-1.63954e-05 8.6049e-10 4.59465e-07)
(-1.65095e-05 8.7251e-10 4.59476e-07)
(-1.66253e-05 8.84785e-10 4.59486e-07)
(-1.67426e-05 8.9732e-10 4.59497e-07)
(-1.68616e-05 9.10123e-10 4.59508e-07)
(-1.69823e-05 9.23202e-10 4.59519e-07)
(-1.71048e-05 9.36566e-10 4.5953e-07)
(-1.7229e-05 9.50222e-10 4.59541e-07)
(-1.73551e-05 9.64179e-10 4.59552e-07)
(-1.7483e-05 9.78444e-10 4.59564e-07)
(-1.76128e-05 9.9303e-10 4.59576e-07)
(-1.77445e-05 1.00794e-09 4.59588e-07)
(-1.78783e-05 1.0232e-09 4.596e-07)
(-1.8014e-05 1.0388e-09 4.59612e-07)
(-1.81519e-05 1.05476e-09 4.59625e-07)
(-1.82919e-05 1.07109e-09 4.59638e-07)
(-1.8434e-05 1.0878e-09 4.59651e-07)
(-1.85784e-05 1.10491e-09 4.59664e-07)
(-1.8725e-05 1.12243e-09 4.59677e-07)
(-1.8874e-05 1.14036e-09 4.59691e-07)
(1.8376e-05 4.41236e-08 4.60712e-07)
(-1.62839e-05 9.98355e-10 4.59478e-07)
(-1.63964e-05 1.0122e-09 4.59489e-07)
(-1.65105e-05 1.02634e-09 4.59499e-07)
(-1.66263e-05 1.04078e-09 4.5951e-07)
(-1.67436e-05 1.05553e-09 4.59521e-07)
(-1.68626e-05 1.07059e-09 4.59532e-07)
(-1.69834e-05 1.08597e-09 4.59543e-07)
(-1.71058e-05 1.10169e-09 4.59554e-07)
(-1.72301e-05 1.11776e-09 4.59566e-07)
(-1.73562e-05 1.13417e-09 4.59578e-07)
(-1.74841e-05 1.15096e-09 4.59589e-07)
(-1.76139e-05 1.16811e-09 4.59601e-07)
(-1.77457e-05 1.18566e-09 4.59614e-07)
(-1.78794e-05 1.2036e-09 4.59626e-07)
(-1.80152e-05 1.22195e-09 4.59638e-07)
(-1.81531e-05 1.24073e-09 4.59651e-07)
(-1.82931e-05 1.25994e-09 4.59664e-07)
(-1.84353e-05 1.2796e-09 4.59677e-07)
(-1.85796e-05 1.29972e-09 4.59691e-07)
(-1.87263e-05 1.32032e-09 4.59704e-07)
(-1.88753e-05 1.34142e-09 4.59718e-07)
(1.93145e-05 -2.0232e-09 4.60874e-07)
)
;

boundaryField
{
    inlet
    {
        type            calculated;
        value           uniform (0 0 0);
    }
    outlet2
    {
        type            calculated;
        value           uniform (0 0 0);
    }
    outlet1
    {
        type            calculated;
        value           uniform (0 0 0);
    }
    wall
    {
        type            calculated;
        value           uniform (0 0 0);
    }
    symmetryBottom
    {
        type            symmetry;
    }
    symmetryZ0
    {
        type            symmetry;
    }
    symmetryZ05
    {
        type            symmetry;
    }
}


// ************************************************************************* //
