/*--------------------------------*- C++ -*----------------------------------*\
| =========                 |                                                 |
| \\      /  F ield         | OpenFOAM: The Open Source CFD Toolbox           |
|  \\    /   O peration     | Version:  2412                                  |
|   \\  /    A nd           | Website:  www.openfoam.com                      |
|    \\/     M anipulation  |                                                 |
\*---------------------------------------------------------------------------*/
FoamFile
{
    version     2.0;
    format      ascii;
    arch        "LSB;label=32;scalar=64";
    class       volVectorField;
    location    "1.68142e-07";
    object      rhoU_dof0;
}
// * * * * * * * * * * * * * * * * * * * * * * * * * * * * * * * * * * * * * //

dimensions      [0 0 0 0 0 0 0];

internalField   nonuniform List<vector> 
625
(
(0.0741188 -2.91212e-09 -1.16015e-08)
(0.072129 -1.93323e-08 -1.31673e-08)
(0.072129 -1.93907e-08 5.81839e-11)
(0.0741189 -7.80434e-06 -1.16015e-08)
(0.0721291 -7.72901e-06 -1.31673e-08)
(0.0721291 -7.72907e-06 -5.81011e-11)
(0.0741189 -7.80239e-06 -1.16015e-08)
(0.072129 -7.72707e-06 -1.31673e-08)
(0.072129 -7.72713e-06 -5.79612e-11)
(0.0741189 -7.80239e-06 -1.16015e-08)
(0.072129 -7.72707e-06 -1.31673e-08)
(0.072129 -7.72713e-06 -5.79612e-11)
(0.0741189 -7.80239e-06 -1.16015e-08)
(0.072129 -7.72707e-06 -1.31673e-08)
(0.072129 -7.72713e-06 -5.79612e-11)
(0.0741189 -7.80239e-06 -1.16015e-08)
(0.072129 -7.72707e-06 -1.31673e-08)
(0.072129 -7.72713e-06 -5.79612e-11)
(0.0741189 -7.80239e-06 -1.16015e-08)
(0.072129 -7.72707e-06 -1.31673e-08)
(0.072129 -7.72713e-06 -5.79612e-11)
(0.0741189 -7.80239e-06 -1.16015e-08)
(0.072129 -7.72707e-06 -1.31673e-08)
(0.072129 -7.72713e-06 -5.79612e-11)
(0.0741189 -7.80239e-06 -1.16015e-08)
(0.072129 -7.72707e-06 -1.31673e-08)
(0.072129 -7.72713e-06 -5.79612e-11)
(0.0741189 -7.80239e-06 -1.16015e-08)
(0.072129 -7.72707e-06 -1.31673e-08)
(0.072129 -7.72713e-06 -5.79612e-11)
(0.0741189 -7.80239e-06 -1.16015e-08)
(0.072129 -7.72707e-06 -1.31673e-08)
(0.072129 -7.72713e-06 -5.79612e-11)
(0.0741189 -7.80239e-06 -1.16015e-08)
(0.072129 -7.72707e-06 -1.31673e-08)
(0.072129 -7.72713e-06 -5.79612e-11)
(0.0741189 -7.80239e-06 -1.16015e-08)
(0.072129 -7.72707e-06 -1.31673e-08)
(0.072129 -7.72713e-06 -5.79612e-11)
(0.0741189 -7.80239e-06 -1.16015e-08)
(0.072129 -7.72707e-06 -1.31673e-08)
(0.072129 -7.72713e-06 -5.79612e-11)
(0.0741189 -7.80239e-06 -1.16015e-08)
(0.072129 -7.72707e-06 -1.31673e-08)
(0.072129 -7.72713e-06 -5.79612e-11)
(0.0741189 -7.80239e-06 -1.16015e-08)
(0.072129 -7.72707e-06 -1.31673e-08)
(0.072129 -7.72713e-06 -5.79612e-11)
(0.0741189 -7.80239e-06 -1.16015e-08)
(0.072129 -7.72707e-06 -1.31673e-08)
(0.072129 -7.72713e-06 -5.79612e-11)
(0.0741189 -7.80239e-06 -1.16015e-08)
(0.072129 -7.72707e-06 -1.31673e-08)
(0.072129 -7.72713e-06 -5.79612e-11)
(0.0741189 -7.80239e-06 -1.16015e-08)
(0.072129 -7.72707e-06 -1.31673e-08)
(0.072129 -7.72713e-06 -5.79612e-11)
(0.0741189 -7.80239e-06 -1.16015e-08)
(0.072129 -7.72707e-06 -1.31673e-08)
(0.072129 -7.72713e-06 -5.79612e-11)
(0.0741189 -7.80239e-06 -1.16015e-08)
(0.072129 -7.72707e-06 -1.31673e-08)
(0.072129 -7.72713e-06 -5.79612e-11)
(0.0741189 -7.80239e-06 -1.16015e-08)
(0.072129 -7.72707e-06 -1.31673e-08)
(0.072129 -7.72713e-06 -5.79612e-11)
(0.0741189 -7.80239e-06 -1.16015e-08)
(0.072129 -7.72707e-06 -1.31673e-08)
(0.072129 -7.72713e-06 -5.79612e-11)
(0.0741189 -7.80239e-06 -1.16015e-08)
(0.072129 -7.72707e-06 -1.31673e-08)
(0.072129 -7.72713e-06 -5.79612e-11)
(0.0741188 -7.80323e-06 -1.16016e-08)
(0.0721287 -7.71149e-06 -1.31673e-08)
(0.0721287 -7.71155e-06 -1.32253e-08)
(0.0724535 4.9388e-08 -1.32689e-08)
(0.0724532 5.02589e-08 -1.32696e-08)
(0.0724529 5.11493e-08 -1.32703e-08)
(0.0724527 5.20598e-08 -1.3271e-08)
(0.0724524 5.2991e-08 -1.32718e-08)
(0.0724521 5.39436e-08 -1.32725e-08)
(0.0724518 5.4918e-08 -1.32733e-08)
(0.0724516 5.5915e-08 -1.3274e-08)
(0.0724513 5.69353e-08 -1.32748e-08)
(0.072451 5.79796e-08 -1.32756e-08)
(0.0724507 5.90486e-08 -1.32764e-08)
(0.0724504 6.0143e-08 -1.32772e-08)
(0.0724501 6.12637e-08 -1.3278e-08)
(0.0724498 6.24115e-08 -1.32789e-08)
(0.0724494 6.35871e-08 -1.32797e-08)
(0.0724491 6.47916e-08 -1.32806e-08)
(0.0724488 6.60258e-08 -1.32815e-08)
(0.0724485 6.72906e-08 -1.32824e-08)
(0.0724481 6.85872e-08 -1.32833e-08)
(0.0724478 6.99164e-08 -1.32842e-08)
(0.0724474 7.12794e-08 -1.32851e-08)
(0.0724602 7.12207e-08 -3.12988e-10)
(0.0727453 -7.78562e-06 -1.32679e-08)
(0.0727471 -7.83924e-06 -1.32686e-08)
(0.0727489 -7.89361e-06 -1.32693e-08)
(0.0727507 -7.94874e-06 -1.327e-08)
(0.0727525 -8.00464e-06 -1.32707e-08)
(0.0727544 -8.06133e-06 -1.32714e-08)
(0.0727562 -8.11884e-06 -1.32722e-08)
(0.0727581 -8.17717e-06 -1.32729e-08)
(0.0727601 -8.23634e-06 -1.32737e-08)
(0.0727621 -8.29638e-06 -1.32745e-08)
(0.0727641 -8.3573e-06 -1.32753e-08)
(0.0727661 -8.41911e-06 -1.32761e-08)
(0.0727681 -8.48186e-06 -1.32769e-08)
(0.0727702 -8.54554e-06 -1.32777e-08)
(0.0727723 -8.61018e-06 -1.32786e-08)
(0.0727745 -8.67582e-06 -1.32794e-08)
(0.0727767 -8.74246e-06 -1.32803e-08)
(0.0727789 -8.81013e-06 -1.32812e-08)
(0.0727812 -8.87886e-06 -1.3282e-08)
(0.0727834 -8.94866e-06 -1.3283e-08)
(0.0727858 -9.01958e-06 -1.32839e-08)
(0.0727985 -9.02047e-06 -2.435e-10)
(0.072734 -7.82067e-06 -1.32679e-08)
(0.0727356 -7.87478e-06 -1.32686e-08)
(0.0727373 -7.92964e-06 -1.32693e-08)
(0.0727391 -7.98527e-06 -1.327e-08)
(0.0727408 -8.04169e-06 -1.32707e-08)
(0.0727426 -8.09892e-06 -1.32714e-08)
(0.0727444 -8.15696e-06 -1.32722e-08)
(0.0727462 -8.21584e-06 -1.32729e-08)
(0.0727481 -8.27558e-06 -1.32737e-08)
(0.0727499 -8.33619e-06 -1.32745e-08)
(0.0727518 -8.3977e-06 -1.32753e-08)
(0.0727538 -8.46012e-06 -1.32761e-08)
(0.0727557 -8.52348e-06 -1.32769e-08)
(0.0727577 -8.58779e-06 -1.32777e-08)
(0.0727597 -8.65308e-06 -1.32786e-08)
(0.0727618 -8.71937e-06 -1.32794e-08)
(0.0727639 -8.78669e-06 -1.32803e-08)
(0.072766 -8.85505e-06 -1.32812e-08)
(0.0727681 -8.92448e-06 -1.32821e-08)
(0.0727703 -8.99501e-06 -1.3283e-08)
(0.0727725 -9.06667e-06 -1.32839e-08)
(0.0727853 -9.06755e-06 -2.33084e-10)
(0.072723 -7.82034e-06 -1.32679e-08)
(0.0727246 -7.87445e-06 -1.32686e-08)
(0.0727262 -7.92931e-06 -1.32693e-08)
(0.0727278 -7.98494e-06 -1.327e-08)
(0.0727295 -8.04135e-06 -1.32707e-08)
(0.0727312 -8.09857e-06 -1.32714e-08)
(0.0727329 -8.15661e-06 -1.32722e-08)
(0.0727346 -8.21548e-06 -1.32729e-08)
(0.0727364 -8.27522e-06 -1.32737e-08)
(0.0727382 -8.33582e-06 -1.32745e-08)
(0.07274 -8.39732e-06 -1.32753e-08)
(0.0727419 -8.45974e-06 -1.32761e-08)
(0.0727437 -8.52309e-06 -1.32769e-08)
(0.0727456 -8.5874e-06 -1.32777e-08)
(0.0727476 -8.65268e-06 -1.32786e-08)
(0.0727495 -8.71897e-06 -1.32794e-08)
(0.0727515 -8.78628e-06 -1.32803e-08)
(0.0727535 -8.85463e-06 -1.32812e-08)
(0.0727556 -8.92406e-06 -1.32821e-08)
(0.0727577 -8.99458e-06 -1.3283e-08)
(0.0727598 -9.06623e-06 -1.32839e-08)
(0.0727725 -9.0671e-06 -2.22959e-10)
(0.0727119 -7.82002e-06 -1.32679e-08)
(0.0727135 -7.87412e-06 -1.32686e-08)
(0.072715 -7.92897e-06 -1.32693e-08)
(0.0727166 -7.9846e-06 -1.327e-08)
(0.0727182 -8.04101e-06 -1.32707e-08)
(0.0727198 -8.09822e-06 -1.32714e-08)
(0.0727214 -8.15625e-06 -1.32722e-08)
(0.0727231 -8.21513e-06 -1.32729e-08)
(0.0727247 -8.27485e-06 -1.32737e-08)
(0.0727264 -8.33545e-06 -1.32745e-08)
(0.0727282 -8.39695e-06 -1.32753e-08)
(0.0727299 -8.45936e-06 -1.32761e-08)
(0.0727317 -8.52271e-06 -1.32769e-08)
(0.0727335 -8.58701e-06 -1.32777e-08)
(0.0727354 -8.65228e-06 -1.32786e-08)
(0.0727372 -8.71856e-06 -1.32794e-08)
(0.0727391 -8.78586e-06 -1.32803e-08)
(0.0727411 -8.85421e-06 -1.32812e-08)
(0.072743 -8.92363e-06 -1.3282e-08)
(0.072745 -8.99415e-06 -1.3283e-08)
(0.072747 -9.06579e-06 -1.32839e-08)
(0.0727598 -9.06665e-06 -2.12834e-10)
(0.0727009 -7.81969e-06 -1.32679e-08)
(0.0727024 -7.87379e-06 -1.32686e-08)
(0.0727038 -7.92864e-06 -1.32693e-08)
(0.0727053 -7.98426e-06 -1.327e-08)
(0.0727068 -8.04067e-06 -1.32707e-08)
(0.0727084 -8.09787e-06 -1.32714e-08)
(0.0727099 -8.1559e-06 -1.32722e-08)
(0.0727115 -8.21477e-06 -1.32729e-08)
(0.0727131 -8.27449e-06 -1.32737e-08)
(0.0727147 -8.33509e-06 -1.32745e-08)
(0.0727164 -8.39658e-06 -1.32753e-08)
(0.072718 -8.45898e-06 -1.32761e-08)
(0.0727197 -8.52232e-06 -1.32769e-08)
(0.0727214 -8.58662e-06 -1.32777e-08)
(0.0727232 -8.65189e-06 -1.32786e-08)
(0.072725 -8.71816e-06 -1.32794e-08)
(0.0727268 -8.78545e-06 -1.32803e-08)
(0.0727286 -8.8538e-06 -1.32812e-08)
(0.0727304 -8.92321e-06 -1.3282e-08)
(0.0727323 -8.99372e-06 -1.3283e-08)
(0.0727342 -9.06536e-06 -1.32839e-08)
(0.072747 -9.06621e-06 -2.02709e-10)
(0.0726899 -7.81937e-06 -1.32679e-08)
(0.0726913 -7.87346e-06 -1.32685e-08)
(0.0726927 -7.92831e-06 -1.32693e-08)
(0.0726941 -7.98392e-06 -1.327e-08)
(0.0726955 -8.04032e-06 -1.32707e-08)
(0.072697 -8.09753e-06 -1.32714e-08)
(0.0726984 -8.15555e-06 -1.32722e-08)
(0.0726999 -8.21441e-06 -1.32729e-08)
(0.0727014 -8.27413e-06 -1.32737e-08)
(0.072703 -8.33472e-06 -1.32745e-08)
(0.0727045 -8.3962e-06 -1.32753e-08)
(0.0727061 -8.4586e-06 -1.32761e-08)
(0.0727077 -8.52193e-06 -1.32769e-08)
(0.0727093 -8.58622e-06 -1.32777e-08)
(0.072711 -8.65149e-06 -1.32786e-08)
(0.0727127 -8.71776e-06 -1.32794e-08)
(0.0727144 -8.78504e-06 -1.32803e-08)
(0.0727161 -8.85338e-06 -1.32811e-08)
(0.0727179 -8.92279e-06 -1.3282e-08)
(0.0727197 -8.99329e-06 -1.32829e-08)
(0.0727215 -9.06492e-06 -1.32839e-08)
(0.0727342 -9.06576e-06 -1.92584e-10)
(0.0726789 -7.81905e-06 -1.32679e-08)
(0.0726802 -7.87313e-06 -1.32685e-08)
(0.0726815 -7.92797e-06 -1.32693e-08)
(0.0726828 -7.98358e-06 -1.327e-08)
(0.0726842 -8.03998e-06 -1.32707e-08)
(0.0726856 -8.09718e-06 -1.32714e-08)
(0.0726869 -8.1552e-06 -1.32722e-08)
(0.0726883 -8.21405e-06 -1.32729e-08)
(0.0726898 -8.27376e-06 -1.32737e-08)
(0.0726912 -8.33435e-06 -1.32745e-08)
(0.0726927 -8.39583e-06 -1.32753e-08)
(0.0726942 -8.45822e-06 -1.32761e-08)
(0.0726957 -8.52155e-06 -1.32769e-08)
(0.0726972 -8.58583e-06 -1.32777e-08)
(0.0726988 -8.65109e-06 -1.32786e-08)
(0.0727004 -8.71735e-06 -1.32794e-08)
(0.072702 -8.78463e-06 -1.32803e-08)
(0.0727036 -8.85296e-06 -1.32811e-08)
(0.0727053 -8.92236e-06 -1.3282e-08)
(0.072707 -8.99286e-06 -1.32829e-08)
(0.0727087 -9.06448e-06 -1.32839e-08)
(0.0727214 -9.06531e-06 -1.82459e-10)
(0.0726679 -7.81872e-06 -1.32678e-08)
(0.0726691 -7.8728e-06 -1.32685e-08)
(0.0726703 -7.92764e-06 -1.32692e-08)
(0.0726716 -7.98325e-06 -1.327e-08)
(0.0726729 -8.03964e-06 -1.32707e-08)
(0.0726741 -8.09683e-06 -1.32714e-08)
(0.0726755 -8.15484e-06 -1.32722e-08)
(0.0726768 -8.21369e-06 -1.32729e-08)
(0.0726781 -8.2734e-06 -1.32737e-08)
(0.0726795 -8.33398e-06 -1.32745e-08)
(0.0726809 -8.39545e-06 -1.32753e-08)
(0.0726823 -8.45784e-06 -1.32761e-08)
(0.0726837 -8.52116e-06 -1.32769e-08)
(0.0726852 -8.58544e-06 -1.32777e-08)
(0.0726866 -8.65069e-06 -1.32785e-08)
(0.0726881 -8.71695e-06 -1.32794e-08)
(0.0726896 -8.78422e-06 -1.32803e-08)
(0.0726912 -8.85255e-06 -1.32811e-08)
(0.0726927 -8.92194e-06 -1.3282e-08)
(0.0726943 -8.99243e-06 -1.32829e-08)
(0.0726959 -9.06405e-06 -1.32839e-08)
(0.0727087 -9.06486e-06 -1.72334e-10)
(0.0726569 -7.8184e-06 -1.32678e-08)
(0.072658 -7.87248e-06 -1.32685e-08)
(0.0726592 -7.92731e-06 -1.32692e-08)
(0.0726603 -7.98291e-06 -1.327e-08)
(0.0726615 -8.03929e-06 -1.32707e-08)
(0.0726627 -8.09648e-06 -1.32714e-08)
(0.072664 -8.15449e-06 -1.32722e-08)
(0.0726652 -8.21334e-06 -1.32729e-08)
(0.0726665 -8.27304e-06 -1.32737e-08)
(0.0726678 -8.33361e-06 -1.32745e-08)
(0.072669 -8.39508e-06 -1.32753e-08)
(0.0726704 -8.45746e-06 -1.32761e-08)
(0.0726717 -8.52078e-06 -1.32769e-08)
(0.0726731 -8.58505e-06 -1.32777e-08)
(0.0726744 -8.6503e-06 -1.32785e-08)
(0.0726758 -8.71654e-06 -1.32794e-08)
(0.0726773 -8.78381e-06 -1.32803e-08)
(0.0726787 -8.85213e-06 -1.32811e-08)
(0.0726802 -8.92152e-06 -1.3282e-08)
(0.0726817 -8.992e-06 -1.32829e-08)
(0.0726832 -9.06361e-06 -1.32839e-08)
(0.0726959 -9.06442e-06 -1.62209e-10)
(0.0726459 -7.81807e-06 -1.32678e-08)
(0.0726469 -7.87215e-06 -1.32685e-08)
(0.072648 -7.92697e-06 -1.32692e-08)
(0.0726491 -7.98257e-06 -1.327e-08)
(0.0726502 -8.03895e-06 -1.32707e-08)
(0.0726513 -8.09613e-06 -1.32714e-08)
(0.0726525 -8.15414e-06 -1.32722e-08)
(0.0726536 -8.21298e-06 -1.32729e-08)
(0.0726548 -8.27267e-06 -1.32737e-08)
(0.072656 -8.33324e-06 -1.32745e-08)
(0.0726572 -8.39471e-06 -1.32753e-08)
(0.0726585 -8.45708e-06 -1.32761e-08)
(0.0726597 -8.52039e-06 -1.32769e-08)
(0.072661 -8.58466e-06 -1.32777e-08)
(0.0726623 -8.6499e-06 -1.32785e-08)
(0.0726636 -8.71614e-06 -1.32794e-08)
(0.0726649 -8.7834e-06 -1.32803e-08)
(0.0726662 -8.85171e-06 -1.32811e-08)
(0.0726676 -8.9211e-06 -1.3282e-08)
(0.072669 -8.99157e-06 -1.32829e-08)
(0.0726704 -9.06317e-06 -1.32839e-08)
(0.0726831 -9.06397e-06 -1.52084e-10)
(0.0726348 -7.81734e-06 -1.32678e-08)
(0.0726358 -7.87141e-06 -1.32685e-08)
(0.0726368 -7.92623e-06 -1.32692e-08)
(0.0726379 -7.98182e-06 -1.327e-08)
(0.0726389 -8.03819e-06 -1.32707e-08)
(0.0726399 -8.09536e-06 -1.32714e-08)
(0.072641 -8.15336e-06 -1.32722e-08)
(0.0726421 -8.21219e-06 -1.32729e-08)
(0.0726432 -8.27188e-06 -1.32737e-08)
(0.0726443 -8.33244e-06 -1.32745e-08)
(0.0726454 -8.39389e-06 -1.32753e-08)
(0.0726465 -8.45626e-06 -1.32761e-08)
(0.0726477 -8.51956e-06 -1.32769e-08)
(0.0726489 -8.58382e-06 -1.32777e-08)
(0.0726501 -8.64905e-06 -1.32785e-08)
(0.0726513 -8.71528e-06 -1.32794e-08)
(0.0726525 -8.78254e-06 -1.32803e-08)
(0.0726538 -8.85084e-06 -1.32811e-08)
(0.072655 -8.92021e-06 -1.3282e-08)
(0.0726563 -8.99067e-06 -1.32829e-08)
(0.0726576 -9.06226e-06 -1.32839e-08)
(0.0726704 -9.06305e-06 -1.39883e-10)
(0.0726239 -7.81602e-06 -1.32678e-08)
(0.0726248 -7.87007e-06 -1.32685e-08)
(0.0726257 -7.92488e-06 -1.32692e-08)
(0.0726266 -7.98046e-06 -1.327e-08)
(0.0726276 -8.03682e-06 -1.32707e-08)
(0.0726286 -8.09398e-06 -1.32714e-08)
(0.0726295 -8.15196e-06 -1.32722e-08)
(0.0726305 -8.21078e-06 -1.32729e-08)
(0.0726315 -8.27046e-06 -1.32737e-08)
(0.0726326 -8.331e-06 -1.32745e-08)
(0.0726336 -8.39245e-06 -1.32753e-08)
(0.0726347 -8.4548e-06 -1.32761e-08)
(0.0726357 -8.51809e-06 -1.32769e-08)
(0.0726368 -8.58233e-06 -1.32777e-08)
(0.0726379 -8.64755e-06 -1.32785e-08)
(0.072639 -8.71376e-06 -1.32794e-08)
(0.0726402 -8.781e-06 -1.32803e-08)
(0.0726413 -8.84929e-06 -1.32811e-08)
(0.0726425 -8.91864e-06 -1.3282e-08)
(0.0726437 -8.98909e-06 -1.32829e-08)
(0.0726449 -9.06067e-06 -1.32838e-08)
(0.0726576 -9.06145e-06 -1.28602e-10)
(0.0726129 -7.81468e-06 -1.32678e-08)
(0.0726137 -7.86872e-06 -1.32685e-08)
(0.0726145 -7.92352e-06 -1.32692e-08)
(0.0726154 -7.97909e-06 -1.32699e-08)
(0.0726163 -8.03543e-06 -1.32707e-08)
(0.0726172 -8.09259e-06 -1.32714e-08)
(0.0726181 -8.15056e-06 -1.32722e-08)
(0.072619 -8.20936e-06 -1.32729e-08)
(0.0726199 -8.26902e-06 -1.32737e-08)
(0.0726208 -8.32956e-06 -1.32745e-08)
(0.0726218 -8.39098e-06 -1.32752e-08)
(0.0726228 -8.45332e-06 -1.32761e-08)
(0.0726237 -8.5166e-06 -1.32769e-08)
(0.0726247 -8.58083e-06 -1.32777e-08)
(0.0726257 -8.64603e-06 -1.32785e-08)
(0.0726268 -8.71223e-06 -1.32794e-08)
(0.0726278 -8.77946e-06 -1.32802e-08)
(0.0726289 -8.84773e-06 -1.32811e-08)
(0.0726299 -8.91706e-06 -1.3282e-08)
(0.072631 -8.9875e-06 -1.32829e-08)
(0.0726321 -9.05906e-06 -1.32838e-08)
(0.0726449 -9.05985e-06 -1.23489e-10)
(0.0726019 -7.81333e-06 -1.32678e-08)
(0.0726026 -7.86736e-06 -1.32685e-08)
(0.0726034 -7.92215e-06 -1.32692e-08)
(0.0726042 -7.9777e-06 -1.32699e-08)
(0.072605 -8.03404e-06 -1.32707e-08)
(0.0726058 -8.09117e-06 -1.32714e-08)
(0.0726066 -8.14913e-06 -1.32722e-08)
(0.0726074 -8.20792e-06 -1.32729e-08)
(0.0726083 -8.26757e-06 -1.32737e-08)
(0.0726091 -8.32809e-06 -1.32745e-08)
(0.07261 -8.38951e-06 -1.32752e-08)
(0.0726109 -8.45183e-06 -1.3276e-08)
(0.0726118 -8.51509e-06 -1.32769e-08)
(0.0726127 -8.5793e-06 -1.32777e-08)
(0.0726136 -8.64449e-06 -1.32785e-08)
(0.0726145 -8.71068e-06 -1.32794e-08)
(0.0726155 -8.77789e-06 -1.32802e-08)
(0.0726164 -8.84614e-06 -1.32811e-08)
(0.0726174 -8.91547e-06 -1.3282e-08)
(0.0726184 -8.98589e-06 -1.32829e-08)
(0.0726194 -9.05743e-06 -1.32838e-08)
(0.0726321 -9.05822e-06 -1.18379e-10)
(0.0725909 -7.81196e-06 -1.32678e-08)
(0.0725915 -7.86598e-06 -1.32685e-08)
(0.0725922 -7.92076e-06 -1.32692e-08)
(0.0725929 -7.9763e-06 -1.32699e-08)
(0.0725937 -8.03262e-06 -1.32707e-08)
(0.0725944 -8.08975e-06 -1.32714e-08)
(0.0725951 -8.14769e-06 -1.32721e-08)
(0.0725959 -8.20647e-06 -1.32729e-08)
(0.0725966 -8.2661e-06 -1.32737e-08)
(0.0725974 -8.32661e-06 -1.32745e-08)
(0.0725982 -8.38801e-06 -1.32752e-08)
(0.072599 -8.45032e-06 -1.3276e-08)
(0.0725998 -8.51357e-06 -1.32769e-08)
(0.0726006 -8.57777e-06 -1.32777e-08)
(0.0726014 -8.64294e-06 -1.32785e-08)
(0.0726023 -8.70911e-06 -1.32794e-08)
(0.0726031 -8.7763e-06 -1.32802e-08)
(0.072604 -8.84454e-06 -1.32811e-08)
(0.0726049 -8.91385e-06 -1.3282e-08)
(0.0726057 -8.98425e-06 -1.32829e-08)
(0.0726067 -9.05578e-06 -1.32838e-08)
(0.0726194 -9.05658e-06 -1.13272e-10)
(0.0725799 -7.81058e-06 -1.32678e-08)
(0.0725805 -7.86459e-06 -1.32685e-08)
(0.0725811 -7.91935e-06 -1.32692e-08)
(0.0725817 -7.97488e-06 -1.32699e-08)
(0.0725824 -8.03119e-06 -1.32707e-08)
(0.072583 -8.0883e-06 -1.32714e-08)
(0.0725837 -8.14623e-06 -1.32721e-08)
(0.0725843 -8.205e-06 -1.32729e-08)
(0.072585 -8.26462e-06 -1.32737e-08)
(0.0725857 -8.32511e-06 -1.32744e-08)
(0.0725864 -8.3865e-06 -1.32752e-08)
(0.0725871 -8.4488e-06 -1.3276e-08)
(0.0725878 -8.51203e-06 -1.32769e-08)
(0.0725885 -8.57621e-06 -1.32777e-08)
(0.0725892 -8.64137e-06 -1.32785e-08)
(0.07259 -8.70752e-06 -1.32794e-08)
(0.0725908 -8.7747e-06 -1.32802e-08)
(0.0725915 -8.84292e-06 -1.32811e-08)
(0.0725923 -8.91221e-06 -1.3282e-08)
(0.0725931 -8.9826e-06 -1.32829e-08)
(0.0725939 -9.0541e-06 -1.32838e-08)
(0.0726066 -9.05491e-06 -1.08167e-10)
(0.0725689 -7.80919e-06 -1.32678e-08)
(0.0725694 -7.86318e-06 -1.32685e-08)
(0.0725699 -7.91793e-06 -1.32692e-08)
(0.0725705 -7.97344e-06 -1.32699e-08)
(0.0725711 -8.02974e-06 -1.32707e-08)
(0.0725716 -8.08684e-06 -1.32714e-08)
(0.0725722 -8.14476e-06 -1.32721e-08)
(0.0725728 -8.20351e-06 -1.32729e-08)
(0.0725734 -8.26312e-06 -1.32737e-08)
(0.072574 -8.3236e-06 -1.32744e-08)
(0.0725746 -8.38497e-06 -1.32752e-08)
(0.0725752 -8.44725e-06 -1.3276e-08)
(0.0725758 -8.51047e-06 -1.32769e-08)
(0.0725764 -8.57463e-06 -1.32777e-08)
(0.0725771 -8.63978e-06 -1.32785e-08)
(0.0725777 -8.70592e-06 -1.32794e-08)
(0.0725784 -8.77308e-06 -1.32802e-08)
(0.0725791 -8.84128e-06 -1.32811e-08)
(0.0725798 -8.91056e-06 -1.3282e-08)
(0.0725805 -8.98093e-06 -1.32829e-08)
(0.0725812 -9.05241e-06 -1.32838e-08)
(0.0725939 -9.05322e-06 -1.03066e-10)
(0.0725579 -7.80778e-06 -1.32678e-08)
(0.0725583 -7.86176e-06 -1.32685e-08)
(0.0725588 -7.91649e-06 -1.32692e-08)
(0.0725593 -7.972e-06 -1.32699e-08)
(0.0725598 -8.02828e-06 -1.32707e-08)
(0.0725602 -8.08537e-06 -1.32714e-08)
(0.0725607 -8.14327e-06 -1.32721e-08)
(0.0725612 -8.20201e-06 -1.32729e-08)
(0.0725617 -8.2616e-06 -1.32737e-08)
(0.0725622 -8.32207e-06 -1.32744e-08)
(0.0725628 -8.38342e-06 -1.32752e-08)
(0.0725633 -8.44569e-06 -1.3276e-08)
(0.0725638 -8.50889e-06 -1.32768e-08)
(0.0725644 -8.57304e-06 -1.32777e-08)
(0.0725649 -8.63817e-06 -1.32785e-08)
(0.0725655 -8.70429e-06 -1.32794e-08)
(0.0725661 -8.77144e-06 -1.32802e-08)
(0.0725666 -8.83963e-06 -1.32811e-08)
(0.0725672 -8.90888e-06 -1.3282e-08)
(0.0725678 -8.97923e-06 -1.32829e-08)
(0.0725684 -9.0507e-06 -1.32838e-08)
(0.0725812 -9.05152e-06 -9.79681e-11)
(0.0725469 -7.80635e-06 -1.32678e-08)
(0.0725473 -7.86032e-06 -1.32685e-08)
(0.0725477 -7.91504e-06 -1.32692e-08)
(0.072548 -7.97053e-06 -1.32699e-08)
(0.0725484 -8.0268e-06 -1.32707e-08)
(0.0725489 -8.08388e-06 -1.32714e-08)
(0.0725493 -8.14177e-06 -1.32721e-08)
(0.0725497 -8.20049e-06 -1.32729e-08)
(0.0725501 -8.26007e-06 -1.32737e-08)
(0.0725505 -8.32052e-06 -1.32744e-08)
(0.072551 -8.38186e-06 -1.32752e-08)
(0.0725514 -8.44411e-06 -1.3276e-08)
(0.0725518 -8.5073e-06 -1.32768e-08)
(0.0725523 -8.57143e-06 -1.32777e-08)
(0.0725528 -8.63654e-06 -1.32785e-08)
(0.0725532 -8.70265e-06 -1.32794e-08)
(0.0725537 -8.76978e-06 -1.32802e-08)
(0.0725542 -8.83795e-06 -1.32811e-08)
(0.0725547 -8.90719e-06 -1.3282e-08)
(0.0725552 -8.97752e-06 -1.32829e-08)
(0.0725557 -9.04898e-06 -1.32838e-08)
(0.0725684 -9.04979e-06 -9.28729e-11)
(0.0725359 -7.80491e-06 -1.32678e-08)
(0.0725362 -7.85887e-06 -1.32685e-08)
(0.0725365 -7.91358e-06 -1.32692e-08)
(0.0725368 -7.96905e-06 -1.32699e-08)
(0.0725371 -8.02531e-06 -1.32707e-08)
(0.0725375 -8.08237e-06 -1.32714e-08)
(0.0725378 -8.14024e-06 -1.32721e-08)
(0.0725381 -8.19895e-06 -1.32729e-08)
(0.0725385 -8.25852e-06 -1.32737e-08)
(0.0725388 -8.31895e-06 -1.32744e-08)
(0.0725392 -8.38028e-06 -1.32752e-08)
(0.0725395 -8.44252e-06 -1.3276e-08)
(0.0725399 -8.50568e-06 -1.32768e-08)
(0.0725402 -8.5698e-06 -1.32777e-08)
(0.0725406 -8.6349e-06 -1.32785e-08)
(0.072541 -8.70099e-06 -1.32794e-08)
(0.0725414 -8.7681e-06 -1.32802e-08)
(0.0725417 -8.83626e-06 -1.32811e-08)
(0.0725421 -8.90548e-06 -1.3282e-08)
(0.0725425 -8.97579e-06 -1.32829e-08)
(0.0725429 -9.04723e-06 -1.32838e-08)
(0.0725557 -9.04805e-06 -8.77808e-11)
(0.0725249 -7.80346e-06 -1.32678e-08)
(0.0725251 -7.8574e-06 -1.32685e-08)
(0.0725254 -7.9121e-06 -1.32692e-08)
(0.0725256 -7.96756e-06 -1.32699e-08)
(0.0725258 -8.0238e-06 -1.32706e-08)
(0.0725261 -8.08085e-06 -1.32714e-08)
(0.0725263 -8.13871e-06 -1.32721e-08)
(0.0725266 -8.1974e-06 -1.32729e-08)
(0.0725268 -8.25695e-06 -1.32737e-08)
(0.0725271 -8.31737e-06 -1.32744e-08)
(0.0725274 -8.37868e-06 -1.32752e-08)
(0.0725276 -8.4409e-06 -1.3276e-08)
(0.0725279 -8.50406e-06 -1.32768e-08)
(0.0725282 -8.56816e-06 -1.32777e-08)
(0.0725284 -8.63324e-06 -1.32785e-08)
(0.0725287 -8.69931e-06 -1.32794e-08)
(0.072529 -8.76641e-06 -1.32802e-08)
(0.0725293 -8.83454e-06 -1.32811e-08)
(0.0725296 -8.90375e-06 -1.3282e-08)
(0.0725299 -8.97404e-06 -1.32829e-08)
(0.0725302 -9.04546e-06 -1.32838e-08)
(0.0725429 -9.04628e-06 -8.26916e-11)
(0.0725139 -7.80199e-06 -1.32678e-08)
(0.0725141 -7.85592e-06 -1.32685e-08)
(0.0725142 -7.9106e-06 -1.32692e-08)
(0.0725144 -7.96605e-06 -1.32699e-08)
(0.0725145 -8.02228e-06 -1.32706e-08)
(0.0725147 -8.07931e-06 -1.32714e-08)
(0.0725149 -8.13715e-06 -1.32721e-08)
(0.072515 -8.19584e-06 -1.32729e-08)
(0.0725152 -8.25537e-06 -1.32736e-08)
(0.0725154 -8.31577e-06 -1.32744e-08)
(0.0725156 -8.37707e-06 -1.32752e-08)
(0.0725157 -8.43927e-06 -1.3276e-08)
(0.0725159 -8.50241e-06 -1.32768e-08)
(0.0725161 -8.5665e-06 -1.32777e-08)
(0.0725163 -8.63156e-06 -1.32785e-08)
(0.0725165 -8.69762e-06 -1.32794e-08)
(0.0725167 -8.76469e-06 -1.32802e-08)
(0.0725169 -8.83281e-06 -1.32811e-08)
(0.072517 -8.902e-06 -1.3282e-08)
(0.0725173 -8.97227e-06 -1.32829e-08)
(0.0725175 -9.04367e-06 -1.32838e-08)
(0.0725302 -9.0445e-06 -7.76054e-11)
(0.0725029 -7.80051e-06 -1.32678e-08)
(0.072503 -7.85442e-06 -1.32685e-08)
(0.0725031 -7.90909e-06 -1.32692e-08)
(0.0725032 -7.96452e-06 -1.32699e-08)
(0.0725032 -8.02074e-06 -1.32706e-08)
(0.0725033 -8.07776e-06 -1.32714e-08)
(0.0725034 -8.13559e-06 -1.32721e-08)
(0.0725035 -8.19425e-06 -1.32729e-08)
(0.0725036 -8.25377e-06 -1.32736e-08)
(0.0725037 -8.31416e-06 -1.32744e-08)
(0.0725038 -8.37544e-06 -1.32752e-08)
(0.0725038 -8.43763e-06 -1.3276e-08)
(0.0725039 -8.50075e-06 -1.32768e-08)
(0.072504 -8.56482e-06 -1.32777e-08)
(0.0725041 -8.62986e-06 -1.32785e-08)
(0.0725042 -8.6959e-06 -1.32793e-08)
(0.0725043 -8.76296e-06 -1.32802e-08)
(0.0725044 -8.83106e-06 -1.32811e-08)
(0.0725045 -8.90023e-06 -1.3282e-08)
(0.0725046 -8.97049e-06 -1.32829e-08)
(0.0725047 -9.04186e-06 -1.32838e-08)
(0.0725174 -9.0427e-06 -7.25222e-11)
(0.0724917 -7.78627e-06 -1.32678e-08)
(0.0724917 -7.84009e-06 -1.32685e-08)
(0.0724917 -7.89466e-06 -1.32692e-08)
(0.0724917 -7.94999e-06 -1.32699e-08)
(0.0724917 -8.00611e-06 -1.32706e-08)
(0.0724917 -8.06302e-06 -1.32714e-08)
(0.0724917 -8.12075e-06 -1.32721e-08)
(0.0724917 -8.17932e-06 -1.32729e-08)
(0.0724917 -8.23873e-06 -1.32736e-08)
(0.0724917 -8.29901e-06 -1.32744e-08)
(0.0724917 -8.36018e-06 -1.32752e-08)
(0.0724917 -8.42226e-06 -1.3276e-08)
(0.0724917 -8.48527e-06 -1.32768e-08)
(0.0724917 -8.54922e-06 -1.32777e-08)
(0.0724917 -8.61415e-06 -1.32785e-08)
(0.0724917 -8.68008e-06 -1.32793e-08)
(0.0724917 -8.74702e-06 -1.32802e-08)
(0.0724917 -8.815e-06 -1.32811e-08)
(0.0724917 -8.88404e-06 -1.3282e-08)
(0.0724917 -8.95418e-06 -1.32829e-08)
(0.0724917 -9.02543e-06 -1.32838e-08)
(0.0725044 -9.02646e-06 -1.34962e-10)
)
;

boundaryField
{
    inlet
    {
        type            calculated;
        value           uniform (0.0741 0 0);
    }
    outlet2
    {
        type            calculated;
        value           uniform (0.0741 0 0);
    }
    outlet1
    {
        type            calculated;
        value           uniform (0.0741 0 0);
    }
    wall
    {
        type            calculated;
        value           uniform (0.0741 0 0);
    }
    symmetryBottom
    {
        type            symmetry;
    }
    symmetryZ0
    {
        type            symmetry;
    }
    symmetryZ05
    {
        type            symmetry;
    }
}


// ************************************************************************* //
