/*--------------------------------*- C++ -*----------------------------------*\
| =========                 |                                                 |
| \\      /  F ield         | OpenFOAM: The Open Source CFD Toolbox           |
|  \\    /   O peration     | Version:  2412                                  |
|   \\  /    A nd           | Website:  www.openfoam.com                      |
|    \\/     M anipulation  |                                                 |
\*---------------------------------------------------------------------------*/
FoamFile
{
    version     2.0;
    format      ascii;
    arch        "LSB;label=32;scalar=64";
    class       volVectorField;
    location    "1.68142e-07";
    object      rhoU_dof3;
}
// * * * * * * * * * * * * * * * * * * * * * * * * * * * * * * * * * * * * * //

dimensions      [0 0 0 0 0 0 0];

internalField   nonuniform List<vector> 
625
(
(9.88547e-05 8.24297e-10 -9.30691e-05)
(9.78557e-05 8.23234e-10 -9.19692e-05)
(9.65248e-05 8.2302e-10 -5.91312e-14)
(9.88548e-05 -5.08491e-09 -9.30692e-05)
(9.78558e-05 -5.08512e-09 -9.19692e-05)
(9.65249e-05 -5.08506e-09 -1.03813e-14)
(9.88548e-05 -5.08474e-09 -9.30691e-05)
(9.78558e-05 -5.08495e-09 -9.19692e-05)
(9.65249e-05 -5.08489e-09 -1.0476e-14)
(9.88548e-05 -5.08474e-09 -9.30691e-05)
(9.78558e-05 -5.08495e-09 -9.19692e-05)
(9.65249e-05 -5.08489e-09 -1.0476e-14)
(9.88548e-05 -5.08474e-09 -9.30691e-05)
(9.78558e-05 -5.08495e-09 -9.19692e-05)
(9.65249e-05 -5.08489e-09 -1.0476e-14)
(9.88548e-05 -5.08474e-09 -9.30691e-05)
(9.78558e-05 -5.08495e-09 -9.19692e-05)
(9.65249e-05 -5.08489e-09 -1.0476e-14)
(9.88548e-05 -5.08474e-09 -9.30691e-05)
(9.78558e-05 -5.08495e-09 -9.19692e-05)
(9.65249e-05 -5.08489e-09 -1.0476e-14)
(9.88548e-05 -5.08474e-09 -9.30691e-05)
(9.78558e-05 -5.08495e-09 -9.19692e-05)
(9.65249e-05 -5.08489e-09 -1.0476e-14)
(9.88548e-05 -5.08474e-09 -9.30691e-05)
(9.78558e-05 -5.08495e-09 -9.19692e-05)
(9.65249e-05 -5.08489e-09 -1.0476e-14)
(9.88548e-05 -5.08474e-09 -9.30691e-05)
(9.78558e-05 -5.08495e-09 -9.19692e-05)
(9.65249e-05 -5.08489e-09 -1.0476e-14)
(9.88548e-05 -5.08474e-09 -9.30691e-05)
(9.78558e-05 -5.08495e-09 -9.19692e-05)
(9.65249e-05 -5.08489e-09 -1.0476e-14)
(9.88548e-05 -5.08474e-09 -9.30691e-05)
(9.78558e-05 -5.08495e-09 -9.19692e-05)
(9.65249e-05 -5.08489e-09 -1.0476e-14)
(9.88548e-05 -5.08474e-09 -9.30691e-05)
(9.78558e-05 -5.08495e-09 -9.19692e-05)
(9.65249e-05 -5.08489e-09 -1.0476e-14)
(9.88548e-05 -5.08474e-09 -9.30691e-05)
(9.78558e-05 -5.08495e-09 -9.19692e-05)
(9.65249e-05 -5.08489e-09 -1.0476e-14)
(9.88548e-05 -5.08474e-09 -9.30691e-05)
(9.78558e-05 -5.08495e-09 -9.19692e-05)
(9.65249e-05 -5.08489e-09 -1.0476e-14)
(9.88548e-05 -5.08474e-09 -9.30691e-05)
(9.78558e-05 -5.08495e-09 -9.19692e-05)
(9.65249e-05 -5.08489e-09 -1.0476e-14)
(9.88548e-05 -5.08474e-09 -9.30691e-05)
(9.78558e-05 -5.08495e-09 -9.19692e-05)
(9.65249e-05 -5.08489e-09 -1.0476e-14)
(9.88548e-05 -5.08474e-09 -9.30691e-05)
(9.78558e-05 -5.08495e-09 -9.19692e-05)
(9.65249e-05 -5.08489e-09 -1.0476e-14)
(9.88548e-05 -5.08474e-09 -9.30691e-05)
(9.78558e-05 -5.08495e-09 -9.19692e-05)
(9.65249e-05 -5.08489e-09 -1.0476e-14)
(9.88548e-05 -5.08474e-09 -9.30691e-05)
(9.78558e-05 -5.08495e-09 -9.19692e-05)
(9.65249e-05 -5.08489e-09 -1.0476e-14)
(9.88548e-05 -5.08474e-09 -9.30691e-05)
(9.78558e-05 -5.08495e-09 -9.19692e-05)
(9.65249e-05 -5.08489e-09 -1.0476e-14)
(9.88548e-05 -5.08474e-09 -9.30691e-05)
(9.78558e-05 -5.08495e-09 -9.19692e-05)
(9.65249e-05 -5.08489e-09 -1.04761e-14)
(9.88548e-05 -5.08474e-09 -9.30691e-05)
(9.78558e-05 -5.08495e-09 -9.19692e-05)
(9.65249e-05 -5.08489e-09 -1.0476e-14)
(9.88548e-05 -5.08474e-09 -9.30691e-05)
(9.78558e-05 -5.08495e-09 -9.19692e-05)
(9.65249e-05 -5.08489e-09 -1.0476e-14)
(9.8867e-05 -5.90899e-09 -9.30808e-05)
(9.7868e-05 -5.90895e-09 -9.19809e-05)
(9.78551e-05 -5.02603e-09 -9.19809e-05)
(9.83731e-05 1.66362e-09 -9.31128e-05)
(9.83749e-05 1.67515e-09 -9.31189e-05)
(9.83767e-05 1.68685e-09 -9.3125e-05)
(9.83785e-05 1.6987e-09 -9.31312e-05)
(9.83804e-05 1.71072e-09 -9.31374e-05)
(9.83823e-05 1.72292e-09 -9.31438e-05)
(9.83842e-05 1.73529e-09 -9.31503e-05)
(9.83861e-05 1.74784e-09 -9.31568e-05)
(9.83881e-05 1.76057e-09 -9.31635e-05)
(9.83901e-05 1.77349e-09 -9.31702e-05)
(9.83921e-05 1.7866e-09 -9.3177e-05)
(9.83942e-05 1.7999e-09 -9.3184e-05)
(9.83963e-05 1.8134e-09 -9.3191e-05)
(9.83984e-05 1.82711e-09 -9.31982e-05)
(9.84006e-05 1.84103e-09 -9.32055e-05)
(9.84027e-05 1.85516e-09 -9.32128e-05)
(9.8405e-05 1.86951e-09 -9.32203e-05)
(9.84072e-05 1.88408e-09 -9.32279e-05)
(9.84095e-05 1.89888e-09 -9.32357e-05)
(9.84118e-05 1.91392e-09 -9.32435e-05)
(9.84142e-05 1.9292e-09 -9.32515e-05)
(0.000115428 2.28758e-09 -1.08389e-14)
(9.85802e-05 -4.3049e-09 -9.27005e-05)
(9.85834e-05 -4.33476e-09 -9.27037e-05)
(9.85867e-05 -4.36504e-09 -9.27069e-05)
(9.859e-05 -4.39574e-09 -9.27101e-05)
(9.85933e-05 -4.42688e-09 -9.27134e-05)
(9.85967e-05 -4.45846e-09 -9.27168e-05)
(9.86002e-05 -4.49049e-09 -9.27202e-05)
(9.86037e-05 -4.52299e-09 -9.27236e-05)
(9.86073e-05 -4.55597e-09 -9.27271e-05)
(9.86109e-05 -4.58942e-09 -9.27306e-05)
(9.86145e-05 -4.62338e-09 -9.27342e-05)
(9.86182e-05 -4.65783e-09 -9.27379e-05)
(9.8622e-05 -4.69281e-09 -9.27416e-05)
(9.86258e-05 -4.72832e-09 -9.27454e-05)
(9.86297e-05 -4.76436e-09 -9.27492e-05)
(9.86337e-05 -4.80096e-09 -9.27531e-05)
(9.86377e-05 -4.83813e-09 -9.2757e-05)
(9.86418e-05 -4.87588e-09 -9.2761e-05)
(9.86459e-05 -4.91422e-09 -9.2765e-05)
(9.86501e-05 -4.95317e-09 -9.27692e-05)
(9.86544e-05 -4.99274e-09 -9.27734e-05)
(0.000115713 -5.92039e-09 1.9553e-15)
(9.85746e-05 -4.30495e-09 -9.26943e-05)
(9.85778e-05 -4.33481e-09 -9.26974e-05)
(9.8581e-05 -4.36509e-09 -9.27005e-05)
(9.85843e-05 -4.3958e-09 -9.27038e-05)
(9.85876e-05 -4.42693e-09 -9.2707e-05)
(9.85909e-05 -4.45852e-09 -9.27103e-05)
(9.85944e-05 -4.49055e-09 -9.27137e-05)
(9.85978e-05 -4.52305e-09 -9.27171e-05)
(9.86013e-05 -4.55603e-09 -9.27205e-05)
(9.86049e-05 -4.58949e-09 -9.2724e-05)
(9.86085e-05 -4.62344e-09 -9.27275e-05)
(9.86122e-05 -4.6579e-09 -9.27311e-05)
(9.86159e-05 -4.69288e-09 -9.27348e-05)
(9.86197e-05 -4.72838e-09 -9.27385e-05)
(9.86235e-05 -4.76443e-09 -9.27423e-05)
(9.86274e-05 -4.80103e-09 -9.27461e-05)
(9.86314e-05 -4.8382e-09 -9.275e-05)
(9.86354e-05 -4.87595e-09 -9.27539e-05)
(9.86395e-05 -4.91429e-09 -9.27579e-05)
(9.86436e-05 -4.95324e-09 -9.2762e-05)
(9.86479e-05 -4.99281e-09 -9.27661e-05)
(0.000115705 -5.92048e-09 1.72919e-15)
(9.8569e-05 -4.30495e-09 -9.26881e-05)
(9.85721e-05 -4.33481e-09 -9.26911e-05)
(9.85753e-05 -4.36509e-09 -9.26943e-05)
(9.85785e-05 -4.3958e-09 -9.26974e-05)
(9.85818e-05 -4.42693e-09 -9.27006e-05)
(9.85851e-05 -4.45852e-09 -9.27039e-05)
(9.85885e-05 -4.49055e-09 -9.27072e-05)
(9.85919e-05 -4.52305e-09 -9.27105e-05)
(9.85954e-05 -4.55603e-09 -9.27139e-05)
(9.85989e-05 -4.58949e-09 -9.27174e-05)
(9.86025e-05 -4.62344e-09 -9.27209e-05)
(9.86061e-05 -4.6579e-09 -9.27244e-05)
(9.86098e-05 -4.69287e-09 -9.2728e-05)
(9.86135e-05 -4.72838e-09 -9.27317e-05)
(9.86173e-05 -4.76443e-09 -9.27354e-05)
(9.86212e-05 -4.80103e-09 -9.27392e-05)
(9.86251e-05 -4.8382e-09 -9.2743e-05)
(9.86291e-05 -4.87595e-09 -9.27469e-05)
(9.86331e-05 -4.91429e-09 -9.27508e-05)
(9.86372e-05 -4.95324e-09 -9.27549e-05)
(9.86414e-05 -4.99281e-09 -9.27589e-05)
(0.000115697 -5.92048e-09 1.73767e-15)
(9.85634e-05 -4.30495e-09 -9.26819e-05)
(9.85665e-05 -4.33481e-09 -9.26849e-05)
(9.85696e-05 -4.36509e-09 -9.2688e-05)
(9.85728e-05 -4.39579e-09 -9.26911e-05)
(9.85761e-05 -4.42693e-09 -9.26943e-05)
(9.85793e-05 -4.45852e-09 -9.26975e-05)
(9.85827e-05 -4.49055e-09 -9.27007e-05)
(9.8586e-05 -4.52305e-09 -9.2704e-05)
(9.85895e-05 -4.55603e-09 -9.27074e-05)
(9.8593e-05 -4.58948e-09 -9.27108e-05)
(9.85965e-05 -4.62344e-09 -9.27142e-05)
(9.86001e-05 -4.6579e-09 -9.27177e-05)
(9.86037e-05 -4.69287e-09 -9.27213e-05)
(9.86074e-05 -4.72838e-09 -9.27249e-05)
(9.86111e-05 -4.76443e-09 -9.27286e-05)
(9.86149e-05 -4.80103e-09 -9.27323e-05)
(9.86188e-05 -4.8382e-09 -9.27361e-05)
(9.86227e-05 -4.87595e-09 -9.27399e-05)
(9.86267e-05 -4.91429e-09 -9.27438e-05)
(9.86308e-05 -4.95324e-09 -9.27477e-05)
(9.86349e-05 -4.99281e-09 -9.27518e-05)
(0.00011569 -5.92048e-09 1.74545e-15)
(9.85578e-05 -4.30495e-09 -9.26757e-05)
(9.85608e-05 -4.33481e-09 -9.26787e-05)
(9.85639e-05 -4.36509e-09 -9.26817e-05)
(9.85671e-05 -4.39579e-09 -9.26848e-05)
(9.85703e-05 -4.42693e-09 -9.26879e-05)
(9.85735e-05 -4.45852e-09 -9.26911e-05)
(9.85768e-05 -4.49055e-09 -9.26943e-05)
(9.85802e-05 -4.52305e-09 -9.26975e-05)
(9.85835e-05 -4.55603e-09 -9.27008e-05)
(9.8587e-05 -4.58948e-09 -9.27042e-05)
(9.85905e-05 -4.62344e-09 -9.27076e-05)
(9.8594e-05 -4.6579e-09 -9.2711e-05)
(9.85976e-05 -4.69287e-09 -9.27145e-05)
(9.86012e-05 -4.72838e-09 -9.27181e-05)
(9.86049e-05 -4.76443e-09 -9.27217e-05)
(9.86087e-05 -4.80103e-09 -9.27254e-05)
(9.86125e-05 -4.8382e-09 -9.27291e-05)
(9.86164e-05 -4.87595e-09 -9.27329e-05)
(9.86203e-05 -4.91429e-09 -9.27367e-05)
(9.86243e-05 -4.95324e-09 -9.27406e-05)
(9.86284e-05 -4.99281e-09 -9.27446e-05)
(0.000115682 -5.92048e-09 1.75393e-15)
(9.85522e-05 -4.30495e-09 -9.26695e-05)
(9.85552e-05 -4.33481e-09 -9.26724e-05)
(9.85583e-05 -4.36509e-09 -9.26754e-05)
(9.85614e-05 -4.39579e-09 -9.26785e-05)
(9.85645e-05 -4.42693e-09 -9.26815e-05)
(9.85677e-05 -4.45852e-09 -9.26846e-05)
(9.8571e-05 -4.49055e-09 -9.26878e-05)
(9.85743e-05 -4.52305e-09 -9.2691e-05)
(9.85776e-05 -4.55603e-09 -9.26943e-05)
(9.8581e-05 -4.58948e-09 -9.26976e-05)
(9.85844e-05 -4.62344e-09 -9.27009e-05)
(9.85879e-05 -4.6579e-09 -9.27043e-05)
(9.85915e-05 -4.69287e-09 -9.27078e-05)
(9.85951e-05 -4.72838e-09 -9.27113e-05)
(9.85987e-05 -4.76443e-09 -9.27148e-05)
(9.86024e-05 -4.80103e-09 -9.27185e-05)
(9.86062e-05 -4.8382e-09 -9.27221e-05)
(9.861e-05 -4.87595e-09 -9.27259e-05)
(9.86139e-05 -4.91429e-09 -9.27296e-05)
(9.86179e-05 -4.95324e-09 -9.27335e-05)
(9.86219e-05 -4.99281e-09 -9.27374e-05)
(0.000115674 -5.92048e-09 1.76262e-15)
(9.85466e-05 -4.30495e-09 -9.26633e-05)
(9.85495e-05 -4.33481e-09 -9.26662e-05)
(9.85526e-05 -4.36509e-09 -9.26691e-05)
(9.85557e-05 -4.39579e-09 -9.26721e-05)
(9.85588e-05 -4.42693e-09 -9.26752e-05)
(9.85619e-05 -4.45851e-09 -9.26782e-05)
(9.85651e-05 -4.49055e-09 -9.26814e-05)
(9.85684e-05 -4.52305e-09 -9.26845e-05)
(9.85717e-05 -4.55603e-09 -9.26877e-05)
(9.8575e-05 -4.58948e-09 -9.2691e-05)
(9.85784e-05 -4.62344e-09 -9.26943e-05)
(9.85819e-05 -4.6579e-09 -9.26976e-05)
(9.85854e-05 -4.69287e-09 -9.2701e-05)
(9.85889e-05 -4.72838e-09 -9.27045e-05)
(9.85925e-05 -4.76443e-09 -9.2708e-05)
(9.85962e-05 -4.80103e-09 -9.27116e-05)
(9.85999e-05 -4.8382e-09 -9.27152e-05)
(9.86037e-05 -4.87595e-09 -9.27188e-05)
(9.86075e-05 -4.91429e-09 -9.27226e-05)
(9.86114e-05 -4.95324e-09 -9.27264e-05)
(9.86154e-05 -4.99281e-09 -9.27302e-05)
(0.000115667 -5.92048e-09 1.77106e-15)
(9.8541e-05 -4.30495e-09 -9.26571e-05)
(9.85439e-05 -4.33481e-09 -9.266e-05)
(9.85469e-05 -4.36509e-09 -9.26629e-05)
(9.85499e-05 -4.39579e-09 -9.26658e-05)
(9.8553e-05 -4.42693e-09 -9.26688e-05)
(9.85561e-05 -4.45851e-09 -9.26718e-05)
(9.85593e-05 -4.49055e-09 -9.26749e-05)
(9.85625e-05 -4.52305e-09 -9.2678e-05)
(9.85658e-05 -4.55603e-09 -9.26812e-05)
(9.85691e-05 -4.58948e-09 -9.26844e-05)
(9.85724e-05 -4.62344e-09 -9.26876e-05)
(9.85758e-05 -4.6579e-09 -9.26909e-05)
(9.85793e-05 -4.69287e-09 -9.26943e-05)
(9.85828e-05 -4.72838e-09 -9.26977e-05)
(9.85863e-05 -4.76443e-09 -9.27011e-05)
(9.85899e-05 -4.80103e-09 -9.27046e-05)
(9.85936e-05 -4.8382e-09 -9.27082e-05)
(9.85973e-05 -4.87595e-09 -9.27118e-05)
(9.86011e-05 -4.91429e-09 -9.27155e-05)
(9.8605e-05 -4.95324e-09 -9.27192e-05)
(9.86089e-05 -4.99281e-09 -9.2723e-05)
(0.000115659 -5.92048e-09 1.77909e-15)
(9.85354e-05 -4.30495e-09 -9.26509e-05)
(9.85383e-05 -4.33481e-09 -9.26537e-05)
(9.85412e-05 -4.36509e-09 -9.26566e-05)
(9.85442e-05 -4.39579e-09 -9.26595e-05)
(9.85472e-05 -4.42693e-09 -9.26624e-05)
(9.85503e-05 -4.45851e-09 -9.26654e-05)
(9.85534e-05 -4.49055e-09 -9.26684e-05)
(9.85566e-05 -4.52305e-09 -9.26715e-05)
(9.85598e-05 -4.55602e-09 -9.26746e-05)
(9.85631e-05 -4.58948e-09 -9.26778e-05)
(9.85664e-05 -4.62344e-09 -9.2681e-05)
(9.85698e-05 -4.6579e-09 -9.26842e-05)
(9.85732e-05 -4.69287e-09 -9.26875e-05)
(9.85766e-05 -4.72838e-09 -9.26909e-05)
(9.85801e-05 -4.76443e-09 -9.26943e-05)
(9.85837e-05 -4.80103e-09 -9.26977e-05)
(9.85873e-05 -4.8382e-09 -9.27012e-05)
(9.8591e-05 -4.87594e-09 -9.27048e-05)
(9.85947e-05 -4.91429e-09 -9.27084e-05)
(9.85985e-05 -4.95324e-09 -9.27121e-05)
(9.86024e-05 -4.99281e-09 -9.27158e-05)
(0.000115651 -5.92048e-09 1.7879e-15)
(9.85298e-05 -4.30495e-09 -9.26447e-05)
(9.85326e-05 -4.33481e-09 -9.26475e-05)
(9.85355e-05 -4.36509e-09 -9.26503e-05)
(9.85385e-05 -4.39579e-09 -9.26532e-05)
(9.85415e-05 -4.42693e-09 -9.26561e-05)
(9.85445e-05 -4.45851e-09 -9.2659e-05)
(9.85476e-05 -4.49055e-09 -9.2662e-05)
(9.85507e-05 -4.52305e-09 -9.2665e-05)
(9.85539e-05 -4.55602e-09 -9.26681e-05)
(9.85571e-05 -4.58948e-09 -9.26712e-05)
(9.85604e-05 -4.62344e-09 -9.26743e-05)
(9.85637e-05 -4.6579e-09 -9.26775e-05)
(9.85671e-05 -4.69287e-09 -9.26808e-05)
(9.85705e-05 -4.72838e-09 -9.26841e-05)
(9.85739e-05 -4.76443e-09 -9.26874e-05)
(9.85774e-05 -4.80103e-09 -9.26908e-05)
(9.8581e-05 -4.8382e-09 -9.26943e-05)
(9.85846e-05 -4.87594e-09 -9.26978e-05)
(9.85883e-05 -4.91429e-09 -9.27014e-05)
(9.85921e-05 -4.95324e-09 -9.2705e-05)
(9.85959e-05 -4.99281e-09 -9.27086e-05)
(0.000115643 -5.92048e-09 1.79605e-15)
(9.85238e-05 -4.33036e-09 -9.26382e-05)
(9.85266e-05 -4.36039e-09 -9.26409e-05)
(9.85295e-05 -4.39085e-09 -9.26437e-05)
(9.85324e-05 -4.42173e-09 -9.26465e-05)
(9.85353e-05 -4.45306e-09 -9.26493e-05)
(9.85383e-05 -4.48482e-09 -9.26522e-05)
(9.85414e-05 -4.51705e-09 -9.26551e-05)
(9.85444e-05 -4.54974e-09 -9.26581e-05)
(9.85476e-05 -4.58291e-09 -9.26611e-05)
(9.85507e-05 -4.61657e-09 -9.26642e-05)
(9.8554e-05 -4.65072e-09 -9.26673e-05)
(9.85572e-05 -4.68538e-09 -9.26704e-05)
(9.85605e-05 -4.72057e-09 -9.26736e-05)
(9.85639e-05 -4.75628e-09 -9.26769e-05)
(9.85673e-05 -4.79254e-09 -9.26802e-05)
(9.85708e-05 -4.82936e-09 -9.26835e-05)
(9.85743e-05 -4.86675e-09 -9.26869e-05)
(9.85779e-05 -4.90472e-09 -9.26904e-05)
(9.85815e-05 -4.94329e-09 -9.26939e-05)
(9.85852e-05 -4.98247e-09 -9.26974e-05)
(9.85889e-05 -5.02227e-09 -9.2701e-05)
(0.000115635 -5.95542e-09 1.7998e-15)
(9.85173e-05 -4.39204e-09 -9.26311e-05)
(9.852e-05 -4.4225e-09 -9.26338e-05)
(9.85229e-05 -4.45339e-09 -9.26365e-05)
(9.85257e-05 -4.48471e-09 -9.26392e-05)
(9.85286e-05 -4.51648e-09 -9.2642e-05)
(9.85316e-05 -4.5487e-09 -9.26449e-05)
(9.85346e-05 -4.58139e-09 -9.26478e-05)
(9.85376e-05 -4.61455e-09 -9.26507e-05)
(9.85407e-05 -4.64819e-09 -9.26536e-05)
(9.85438e-05 -4.68232e-09 -9.26566e-05)
(9.8547e-05 -4.71696e-09 -9.26597e-05)
(9.85502e-05 -4.75212e-09 -9.26628e-05)
(9.85534e-05 -4.7878e-09 -9.26659e-05)
(9.85567e-05 -4.82403e-09 -9.26691e-05)
(9.85601e-05 -4.86081e-09 -9.26723e-05)
(9.85635e-05 -4.89815e-09 -9.26756e-05)
(9.8567e-05 -4.93607e-09 -9.2679e-05)
(9.85705e-05 -4.97458e-09 -9.26824e-05)
(9.85741e-05 -5.0137e-09 -9.26858e-05)
(9.85777e-05 -5.05344e-09 -9.26893e-05)
(9.85814e-05 -5.09381e-09 -9.26928e-05)
(0.000115626 -6.04026e-09 -1.25935e-14)
(9.85107e-05 -4.45381e-09 -9.2624e-05)
(9.85135e-05 -4.4847e-09 -9.26267e-05)
(9.85163e-05 -4.51602e-09 -9.26293e-05)
(9.85191e-05 -4.54779e-09 -9.2632e-05)
(9.85219e-05 -4.58e-09 -9.26348e-05)
(9.85248e-05 -4.61268e-09 -9.26376e-05)
(9.85278e-05 -4.64582e-09 -9.26404e-05)
(9.85307e-05 -4.67945e-09 -9.26433e-05)
(9.85338e-05 -4.71356e-09 -9.26462e-05)
(9.85368e-05 -4.74818e-09 -9.26491e-05)
(9.854e-05 -4.7833e-09 -9.26521e-05)
(9.85431e-05 -4.81895e-09 -9.26551e-05)
(9.85463e-05 -4.85514e-09 -9.26582e-05)
(9.85496e-05 -4.89187e-09 -9.26613e-05)
(9.85529e-05 -4.92917e-09 -9.26645e-05)
(9.85562e-05 -4.96704e-09 -9.26678e-05)
(9.85596e-05 -5.00549e-09 -9.2671e-05)
(9.85631e-05 -5.04454e-09 -9.26744e-05)
(9.85666e-05 -5.08421e-09 -9.26777e-05)
(9.85702e-05 -5.12451e-09 -9.26812e-05)
(9.85738e-05 -5.16545e-09 -9.26847e-05)
(0.000115617 -6.12521e-09 -1.25977e-14)
(9.85042e-05 -4.51567e-09 -9.2617e-05)
(9.85069e-05 -4.54699e-09 -9.26195e-05)
(9.85096e-05 -4.57875e-09 -9.26222e-05)
(9.85124e-05 -4.61095e-09 -9.26248e-05)
(9.85152e-05 -4.64362e-09 -9.26275e-05)
(9.85181e-05 -4.67674e-09 -9.26302e-05)
(9.8521e-05 -4.71035e-09 -9.2633e-05)
(9.85239e-05 -4.74444e-09 -9.26358e-05)
(9.85269e-05 -4.77903e-09 -9.26387e-05)
(9.85299e-05 -4.81412e-09 -9.26416e-05)
(9.8533e-05 -4.84974e-09 -9.26445e-05)
(9.85361e-05 -4.88589e-09 -9.26475e-05)
(9.85392e-05 -4.92258e-09 -9.26505e-05)
(9.85424e-05 -4.95982e-09 -9.26536e-05)
(9.85457e-05 -4.99763e-09 -9.26567e-05)
(9.8549e-05 -5.03602e-09 -9.26599e-05)
(9.85523e-05 -5.07501e-09 -9.26631e-05)
(9.85557e-05 -5.11461e-09 -9.26663e-05)
(9.85592e-05 -5.15483e-09 -9.26697e-05)
(9.85627e-05 -5.19568e-09 -9.2673e-05)
(9.85663e-05 -5.23719e-09 -9.26765e-05)
(0.000115608 -6.21029e-09 -1.26016e-14)
(9.84977e-05 -4.57761e-09 -9.26099e-05)
(9.85003e-05 -4.60936e-09 -9.26124e-05)
(9.8503e-05 -4.64155e-09 -9.2615e-05)
(9.85058e-05 -4.6742e-09 -9.26176e-05)
(9.85085e-05 -4.70731e-09 -9.26202e-05)
(9.85113e-05 -4.7409e-09 -9.26229e-05)
(9.85142e-05 -4.77496e-09 -9.26256e-05)
(9.8517e-05 -4.80952e-09 -9.26284e-05)
(9.852e-05 -4.84458e-09 -9.26312e-05)
(9.85229e-05 -4.88016e-09 -9.2634e-05)
(9.85259e-05 -4.91626e-09 -9.26369e-05)
(9.8529e-05 -4.95291e-09 -9.26398e-05)
(9.85321e-05 -4.9901e-09 -9.26428e-05)
(9.85353e-05 -5.02785e-09 -9.26458e-05)
(9.85384e-05 -5.06619e-09 -9.26489e-05)
(9.85417e-05 -5.1051e-09 -9.2652e-05)
(9.8545e-05 -5.14463e-09 -9.26551e-05)
(9.85483e-05 -5.18477e-09 -9.26583e-05)
(9.85517e-05 -5.22554e-09 -9.26616e-05)
(9.85552e-05 -5.26695e-09 -9.26649e-05)
(9.85587e-05 -5.30903e-09 -9.26683e-05)
(0.000115599 -6.29547e-09 -1.26062e-14)
(9.84912e-05 -4.63962e-09 -9.26028e-05)
(9.84938e-05 -4.67181e-09 -9.26053e-05)
(9.84964e-05 -4.70444e-09 -9.26078e-05)
(9.84991e-05 -4.73753e-09 -9.26104e-05)
(9.85018e-05 -4.77109e-09 -9.2613e-05)
(9.85046e-05 -4.80513e-09 -9.26156e-05)
(9.85074e-05 -4.83965e-09 -9.26183e-05)
(9.85102e-05 -4.87468e-09 -9.2621e-05)
(9.85131e-05 -4.91022e-09 -9.26237e-05)
(9.8516e-05 -4.94628e-09 -9.26265e-05)
(9.85189e-05 -4.98287e-09 -9.26293e-05)
(9.85219e-05 -5.02001e-09 -9.26322e-05)
(9.8525e-05 -5.0577e-09 -9.26351e-05)
(9.85281e-05 -5.09597e-09 -9.26381e-05)
(9.85312e-05 -5.13482e-09 -9.26411e-05)
(9.85344e-05 -5.17427e-09 -9.26441e-05)
(9.85377e-05 -5.21433e-09 -9.26472e-05)
(9.85409e-05 -5.25501e-09 -9.26503e-05)
(9.85443e-05 -5.29633e-09 -9.26535e-05)
(9.85477e-05 -5.33831e-09 -9.26568e-05)
(9.85511e-05 -5.38096e-09 -9.26601e-05)
(0.00011559 -6.38076e-09 -1.26107e-14)
(9.84846e-05 -4.70171e-09 -9.25957e-05)
(9.84872e-05 -4.73432e-09 -9.25982e-05)
(9.84898e-05 -4.76739e-09 -9.26007e-05)
(9.84924e-05 -4.80092e-09 -9.26032e-05)
(9.84951e-05 -4.83493e-09 -9.26057e-05)
(9.84978e-05 -4.86942e-09 -9.26083e-05)
(9.85005e-05 -4.90441e-09 -9.26109e-05)
(9.85033e-05 -4.93991e-09 -9.26135e-05)
(9.85062e-05 -4.97592e-09 -9.26162e-05)
(9.8509e-05 -5.01246e-09 -9.2619e-05)
(9.85119e-05 -5.04954e-09 -9.26217e-05)
(9.85149e-05 -5.08718e-09 -9.26245e-05)
(9.85179e-05 -5.12538e-09 -9.26274e-05)
(9.85209e-05 -5.16416e-09 -9.26303e-05)
(9.8524e-05 -5.20353e-09 -9.26332e-05)
(9.85271e-05 -5.2435e-09 -9.26362e-05)
(9.85303e-05 -5.2841e-09 -9.26392e-05)
(9.85336e-05 -5.32532e-09 -9.26423e-05)
(9.85368e-05 -5.3672e-09 -9.26455e-05)
(9.85402e-05 -5.40974e-09 -9.26486e-05)
(9.85436e-05 -5.45296e-09 -9.26519e-05)
(0.000115581 -6.46614e-09 -1.26151e-14)
(9.84781e-05 -4.76385e-09 -9.25887e-05)
(9.84806e-05 -4.79689e-09 -9.25911e-05)
(9.84832e-05 -4.8304e-09 -9.25935e-05)
(9.84858e-05 -4.86437e-09 -9.25959e-05)
(9.84884e-05 -4.89883e-09 -9.25984e-05)
(9.8491e-05 -4.93378e-09 -9.2601e-05)
(9.84937e-05 -4.96923e-09 -9.26035e-05)
(9.84965e-05 -5.0052e-09 -9.26061e-05)
(9.84992e-05 -5.04168e-09 -9.26087e-05)
(9.85021e-05 -5.07871e-09 -9.26114e-05)
(9.85049e-05 -5.11628e-09 -9.26141e-05)
(9.85078e-05 -5.15441e-09 -9.26169e-05)
(9.85108e-05 -5.19312e-09 -9.26197e-05)
(9.85138e-05 -5.23241e-09 -9.26225e-05)
(9.85168e-05 -5.2723e-09 -9.26254e-05)
(9.85199e-05 -5.3128e-09 -9.26283e-05)
(9.8523e-05 -5.35394e-09 -9.26313e-05)
(9.85262e-05 -5.39571e-09 -9.26343e-05)
(9.85294e-05 -5.43814e-09 -9.26374e-05)
(9.85327e-05 -5.48124e-09 -9.26405e-05)
(9.8536e-05 -5.52503e-09 -9.26437e-05)
(0.000115572 -6.55161e-09 -1.26193e-14)
(9.84716e-05 -4.82604e-09 -9.25816e-05)
(9.84741e-05 -4.85951e-09 -9.25839e-05)
(9.84766e-05 -4.89345e-09 -9.25863e-05)
(9.84791e-05 -4.92787e-09 -9.25887e-05)
(9.84817e-05 -4.96278e-09 -9.25912e-05)
(9.84843e-05 -4.99819e-09 -9.25936e-05)
(9.84869e-05 -5.0341e-09 -9.25961e-05)
(9.84896e-05 -5.07054e-09 -9.25987e-05)
(9.84923e-05 -5.1075e-09 -9.26013e-05)
(9.84951e-05 -5.14501e-09 -9.26039e-05)
(9.84979e-05 -5.18307e-09 -9.26065e-05)
(9.85008e-05 -5.2217e-09 -9.26092e-05)
(9.85036e-05 -5.26091e-09 -9.2612e-05)
(9.85066e-05 -5.30072e-09 -9.26148e-05)
(9.85096e-05 -5.34113e-09 -9.26176e-05)
(9.85126e-05 -5.38216e-09 -9.26204e-05)
(9.85157e-05 -5.42383e-09 -9.26234e-05)
(9.85188e-05 -5.46615e-09 -9.26263e-05)
(9.85219e-05 -5.50913e-09 -9.26293e-05)
(9.85252e-05 -5.55279e-09 -9.26324e-05)
(9.85284e-05 -5.59715e-09 -9.26355e-05)
(0.000115563 -6.63713e-09 -1.2624e-14)
(9.84651e-05 -4.88827e-09 -9.25745e-05)
(9.84675e-05 -4.92218e-09 -9.25768e-05)
(9.84699e-05 -4.95656e-09 -9.25791e-05)
(9.84724e-05 -4.99142e-09 -9.25815e-05)
(9.8475e-05 -5.02678e-09 -9.25839e-05)
(9.84775e-05 -5.06264e-09 -9.25863e-05)
(9.84801e-05 -5.09902e-09 -9.25888e-05)
(9.84828e-05 -5.13592e-09 -9.25913e-05)
(9.84854e-05 -5.17336e-09 -9.25938e-05)
(9.84881e-05 -5.21135e-09 -9.25963e-05)
(9.84909e-05 -5.24991e-09 -9.25989e-05)
(9.84937e-05 -5.28904e-09 -9.26016e-05)
(9.84965e-05 -5.32875e-09 -9.26043e-05)
(9.84994e-05 -5.36907e-09 -9.2607e-05)
(9.85023e-05 -5.41e-09 -9.26098e-05)
(9.85053e-05 -5.45156e-09 -9.26126e-05)
(9.85083e-05 -5.49377e-09 -9.26154e-05)
(9.85114e-05 -5.53663e-09 -9.26183e-05)
(9.85145e-05 -5.58017e-09 -9.26212e-05)
(9.85176e-05 -5.6244e-09 -9.26242e-05)
(9.85209e-05 -5.66933e-09 -9.26273e-05)
(0.000115554 -6.72272e-09 -1.26287e-14)
(9.84585e-05 -4.95053e-09 -9.25675e-05)
(9.84609e-05 -4.98487e-09 -9.25697e-05)
(9.84633e-05 -5.01969e-09 -9.2572e-05)
(9.84658e-05 -5.055e-09 -9.25743e-05)
(9.84682e-05 -5.09081e-09 -9.25766e-05)
(9.84708e-05 -5.12712e-09 -9.2579e-05)
(9.84733e-05 -5.16396e-09 -9.25814e-05)
(9.84759e-05 -5.20134e-09 -9.25838e-05)
(9.84785e-05 -5.23926e-09 -9.25863e-05)
(9.84812e-05 -5.27773e-09 -9.25888e-05)
(9.84839e-05 -5.31678e-09 -9.25914e-05)
(9.84866e-05 -5.35641e-09 -9.25939e-05)
(9.84894e-05 -5.39663e-09 -9.25966e-05)
(9.84922e-05 -5.43746e-09 -9.25992e-05)
(9.84951e-05 -5.47891e-09 -9.26019e-05)
(9.8498e-05 -5.521e-09 -9.26047e-05)
(9.8501e-05 -5.56374e-09 -9.26075e-05)
(9.8504e-05 -5.60715e-09 -9.26103e-05)
(9.8507e-05 -5.65125e-09 -9.26132e-05)
(9.85101e-05 -5.69604e-09 -9.26161e-05)
(9.85133e-05 -5.74154e-09 -9.26191e-05)
(0.000115546 -6.80835e-09 -1.26331e-14)
(9.8452e-05 -5.01282e-09 -9.25604e-05)
(9.84543e-05 -5.04759e-09 -9.25626e-05)
(9.84567e-05 -5.08285e-09 -9.25648e-05)
(9.84591e-05 -5.1186e-09 -9.25671e-05)
(9.84615e-05 -5.15486e-09 -9.25693e-05)
(9.8464e-05 -5.19164e-09 -9.25717e-05)
(9.84665e-05 -5.22894e-09 -9.2574e-05)
(9.8469e-05 -5.26678e-09 -9.25764e-05)
(9.84716e-05 -5.30518e-09 -9.25788e-05)
(9.84742e-05 -5.34414e-09 -9.25813e-05)
(9.84769e-05 -5.38368e-09 -9.25838e-05)
(9.84796e-05 -5.4238e-09 -9.25863e-05)
(9.84823e-05 -5.46453e-09 -9.25889e-05)
(9.84851e-05 -5.50588e-09 -9.25915e-05)
(9.84879e-05 -5.54785e-09 -9.25941e-05)
(9.84907e-05 -5.59047e-09 -9.25968e-05)
(9.84936e-05 -5.63375e-09 -9.25995e-05)
(9.84966e-05 -5.6777e-09 -9.26023e-05)
(9.84996e-05 -5.72235e-09 -9.26051e-05)
(9.85026e-05 -5.76771e-09 -9.26079e-05)
(9.85057e-05 -5.81378e-09 -9.26109e-05)
(0.000115537 -6.89402e-09 -1.26378e-14)
(9.84455e-05 -5.07513e-09 -9.25533e-05)
(9.84477e-05 -5.11033e-09 -9.25555e-05)
(9.84501e-05 -5.14603e-09 -9.25576e-05)
(9.84524e-05 -5.18222e-09 -9.25598e-05)
(9.84548e-05 -5.21893e-09 -9.25621e-05)
(9.84572e-05 -5.25616e-09 -9.25643e-05)
(9.84597e-05 -5.29393e-09 -9.25666e-05)
(9.84622e-05 -5.33225e-09 -9.2569e-05)
(9.84647e-05 -5.37112e-09 -9.25713e-05)
(9.84673e-05 -5.41056e-09 -9.25737e-05)
(9.84699e-05 -5.45059e-09 -9.25762e-05)
(9.84725e-05 -5.49122e-09 -9.25786e-05)
(9.84752e-05 -5.53245e-09 -9.25811e-05)
(9.84779e-05 -5.57431e-09 -9.25837e-05)
(9.84806e-05 -5.61681e-09 -9.25863e-05)
(9.84834e-05 -5.65996e-09 -9.25889e-05)
(9.84863e-05 -5.70377e-09 -9.25916e-05)
(9.84892e-05 -5.74827e-09 -9.25943e-05)
(9.84921e-05 -5.79348e-09 -9.2597e-05)
(9.84951e-05 -5.83939e-09 -9.25998e-05)
(9.84981e-05 -5.88605e-09 -9.26026e-05)
(0.000115528 -6.9797e-09 -1.26425e-14)
(9.84512e-05 -5.96995e-09 -9.2558e-05)
(9.84535e-05 -6.01136e-09 -9.25602e-05)
(9.84559e-05 -6.05334e-09 -9.25624e-05)
(9.84583e-05 -6.09592e-09 -9.25646e-05)
(9.84607e-05 -6.1391e-09 -9.25669e-05)
(9.84632e-05 -6.1829e-09 -9.25692e-05)
(9.84657e-05 -6.22733e-09 -9.25715e-05)
(9.84682e-05 -6.2724e-09 -9.25739e-05)
(9.84708e-05 -6.31812e-09 -9.25763e-05)
(9.84734e-05 -6.36452e-09 -9.25787e-05)
(9.8476e-05 -6.41161e-09 -9.25812e-05)
(9.84787e-05 -6.4594e-09 -9.25837e-05)
(9.84814e-05 -6.5079e-09 -9.25863e-05)
(9.84842e-05 -6.55714e-09 -9.25889e-05)
(9.8487e-05 -6.60713e-09 -9.25915e-05)
(9.84899e-05 -6.65789e-09 -9.25941e-05)
(9.84928e-05 -6.70943e-09 -9.25968e-05)
(9.84957e-05 -6.76178e-09 -9.25996e-05)
(9.84987e-05 -6.81495e-09 -9.26024e-05)
(9.85017e-05 -6.86896e-09 -9.26052e-05)
(9.85048e-05 -6.92384e-09 -9.26081e-05)
(0.000115535 -8.21033e-09 -1.25264e-14)
)
;

boundaryField
{
    inlet
    {
        type            calculated;
        value           uniform (0 0 0);
    }
    outlet2
    {
        type            calculated;
        value           uniform (0 0 0);
    }
    outlet1
    {
        type            calculated;
        value           uniform (0 0 0);
    }
    wall
    {
        type            calculated;
        value           uniform (0 0 0);
    }
    symmetryBottom
    {
        type            symmetry;
    }
    symmetryZ0
    {
        type            symmetry;
    }
    symmetryZ05
    {
        type            symmetry;
    }
}


// ************************************************************************* //
