/*--------------------------------*- C++ -*----------------------------------*\
| =========                 |                                                 |
| \\      /  F ield         | OpenFOAM: The Open Source CFD Toolbox           |
|  \\    /   O peration     | Version:  2412                                  |
|   \\  /    A nd           | Website:  www.openfoam.com                      |
|    \\/     M anipulation  |                                                 |
\*---------------------------------------------------------------------------*/
FoamFile
{
    version     2.0;
    format      ascii;
    arch        "LSB;label=32;scalar=64";
    class       volVectorField;
    location    "1.68142e-07";
    object      rhoU_dof2;
}
// * * * * * * * * * * * * * * * * * * * * * * * * * * * * * * * * * * * * * //

dimensions      [0 0 0 0 0 0 0];

internalField   nonuniform List<vector> 
625
(
(3.00523e-07 -2.29164e-05 3.59966e-13)
(1.03582e-06 -2.2696e-05 2.41186e-13)
(-6.55106e-10 4.62523e-07 -9.19692e-05)
(-1.04618e-07 4.76184e-07 3.31996e-13)
(6.33395e-07 4.2144e-07 -1.46922e-14)
(-4.57364e-09 4.62639e-07 -9.19692e-05)
(-3.91128e-08 4.70356e-07 3.38501e-13)
(6.989e-07 4.15622e-07 -5.16485e-15)
(-4.57285e-09 4.62639e-07 -9.19692e-05)
(-3.91128e-08 4.70356e-07 3.38501e-13)
(6.989e-07 4.15622e-07 -5.16483e-15)
(-4.57285e-09 4.62639e-07 -9.19692e-05)
(-3.91128e-08 4.70356e-07 3.38501e-13)
(6.989e-07 4.15622e-07 -5.16484e-15)
(-4.57285e-09 4.62639e-07 -9.19692e-05)
(-3.91128e-08 4.70356e-07 3.38501e-13)
(6.989e-07 4.15622e-07 -5.16484e-15)
(-4.57285e-09 4.62639e-07 -9.19692e-05)
(-3.91128e-08 4.70356e-07 3.38501e-13)
(6.989e-07 4.15622e-07 -5.16487e-15)
(-4.57285e-09 4.62639e-07 -9.19692e-05)
(-3.91128e-08 4.70356e-07 3.38501e-13)
(6.989e-07 4.15622e-07 -5.16487e-15)
(-4.57285e-09 4.62639e-07 -9.19692e-05)
(-3.91128e-08 4.70356e-07 3.38501e-13)
(6.989e-07 4.15622e-07 -5.16481e-15)
(-4.57285e-09 4.62639e-07 -9.19692e-05)
(-3.91128e-08 4.70356e-07 3.38501e-13)
(6.989e-07 4.15622e-07 -5.16473e-15)
(-4.57285e-09 4.62639e-07 -9.19692e-05)
(-3.91128e-08 4.70356e-07 3.38501e-13)
(6.989e-07 4.15622e-07 -5.16485e-15)
(-4.57285e-09 4.62639e-07 -9.19692e-05)
(-3.91128e-08 4.70356e-07 3.38501e-13)
(6.989e-07 4.15622e-07 -5.16492e-15)
(-4.57285e-09 4.62639e-07 -9.19692e-05)
(-3.91128e-08 4.70356e-07 3.38501e-13)
(6.989e-07 4.15622e-07 -5.16492e-15)
(-4.57285e-09 4.62639e-07 -9.19692e-05)
(-3.91128e-08 4.70356e-07 3.38501e-13)
(6.989e-07 4.15622e-07 -5.16491e-15)
(-4.57285e-09 4.62639e-07 -9.19692e-05)
(-3.91128e-08 4.70356e-07 3.38501e-13)
(6.989e-07 4.15622e-07 -5.16479e-15)
(-4.57285e-09 4.62639e-07 -9.19692e-05)
(-3.91128e-08 4.70356e-07 3.38501e-13)
(6.989e-07 4.15622e-07 -5.16491e-15)
(-4.57285e-09 4.62639e-07 -9.19692e-05)
(-3.91128e-08 4.70356e-07 3.38501e-13)
(6.989e-07 4.15622e-07 -5.16483e-15)
(-4.57285e-09 4.62639e-07 -9.19692e-05)
(-3.91128e-08 4.70356e-07 3.38501e-13)
(6.989e-07 4.15622e-07 -5.1648e-15)
(-4.57285e-09 4.62639e-07 -9.19692e-05)
(-3.91128e-08 4.70356e-07 3.38501e-13)
(6.989e-07 4.15622e-07 -5.16486e-15)
(-4.57285e-09 4.62639e-07 -9.19692e-05)
(-3.91128e-08 4.70356e-07 3.38501e-13)
(6.989e-07 4.15622e-07 -5.16461e-15)
(-4.57285e-09 4.62639e-07 -9.19692e-05)
(-3.91128e-08 4.70356e-07 3.38501e-13)
(6.989e-07 4.15622e-07 -5.16463e-15)
(-4.57285e-09 4.62639e-07 -9.19692e-05)
(-3.91128e-08 4.70356e-07 3.38501e-13)
(6.989e-07 4.15622e-07 -5.16491e-15)
(-4.57285e-09 4.62639e-07 -9.19692e-05)
(-3.91128e-08 4.70356e-07 3.38501e-13)
(6.989e-07 4.15622e-07 -5.16478e-15)
(-4.57285e-09 4.62639e-07 -9.19692e-05)
(-3.91128e-08 4.70356e-07 3.38501e-13)
(6.989e-07 4.15622e-07 -5.16499e-15)
(-4.57285e-09 4.62639e-07 -9.19692e-05)
(-2.12975e-07 4.67845e-07 -8.81967e-15)
(-2.10187e-07 4.62341e-07 -4.44484e-15)
(-2.12148e-07 4.62515e-07 1.73917e-10)
(0.000892896 -2.32011e-05 2.96099e-12)
(0.00089906 -2.33663e-05 2.98324e-12)
(0.000905311 -2.35338e-05 3.00583e-12)
(0.000911649 -2.37036e-05 3.02876e-12)
(0.000918076 -2.38759e-05 3.05204e-12)
(0.000924595 -2.40507e-05 3.07567e-12)
(0.000931207 -2.42279e-05 3.09968e-12)
(0.000937914 -2.44078e-05 3.12405e-12)
(0.000944718 -2.45903e-05 3.14882e-12)
(0.000951622 -2.47755e-05 3.17397e-12)
(0.000958628 -2.49635e-05 3.19953e-12)
(0.000965737 -2.51543e-05 3.2255e-12)
(0.000972953 -2.53479e-05 3.25189e-12)
(0.000980277 -2.55445e-05 3.27871e-12)
(0.000987713 -2.57442e-05 3.30597e-12)
(0.000995262 -2.59469e-05 3.33369e-12)
(0.00100293 -2.61528e-05 3.36187e-12)
(0.00101071 -2.63619e-05 3.39053e-12)
(0.00101862 -2.65743e-05 3.41968e-12)
(0.00102665 -2.67901e-05 3.44933e-12)
(0.00103481 -2.70094e-05 3.4795e-12)
(1.38597e-09 4.65423e-07 -9.25259e-05)
(-1.57763e-05 3.01321e-07 -6.95789e-15)
(-1.58951e-05 2.99619e-07 -7.27585e-15)
(-1.60158e-05 2.97885e-07 -7.60226e-15)
(-1.61382e-05 2.96118e-07 -7.93691e-15)
(-1.62626e-05 2.94318e-07 -8.28028e-15)
(-1.63889e-05 2.92483e-07 -8.63302e-15)
(-1.65171e-05 2.90613e-07 -8.99453e-15)
(-1.66473e-05 2.88707e-07 -9.36592e-15)
(-1.67796e-05 2.86763e-07 -9.74705e-15)
(-1.69141e-05 2.84781e-07 -1.01386e-14)
(-1.70506e-05 2.8276e-07 -1.05402e-14)
(-1.71894e-05 2.80698e-07 -1.0953e-14)
(-1.73304e-05 2.78595e-07 -1.13768e-14)
(-1.74737e-05 2.76448e-07 -1.18123e-14)
(-1.76194e-05 2.74258e-07 -1.22598e-14)
(-1.77676e-05 2.72022e-07 -1.27193e-14)
(-1.79182e-05 2.6974e-07 -1.31921e-14)
(-1.80714e-05 2.6741e-07 -1.36777e-14)
(-1.82272e-05 2.6503e-07 -1.41772e-14)
(-1.83857e-05 2.62599e-07 -1.46905e-14)
(-1.85469e-05 2.60116e-07 -1.52186e-14)
(-4.5571e-09 4.6303e-07 -9.20516e-05)
(-1.48336e-05 4.06438e-07 2.13392e-14)
(-1.49388e-05 4.06194e-07 2.14204e-14)
(-1.50454e-05 4.05949e-07 2.15018e-14)
(-1.51536e-05 4.05703e-07 2.15834e-14)
(-1.52633e-05 4.05455e-07 2.16652e-14)
(-1.53747e-05 4.05206e-07 2.1747e-14)
(-1.54876e-05 4.04957e-07 2.18292e-14)
(-1.56023e-05 4.04706e-07 2.19114e-14)
(-1.57187e-05 4.04454e-07 2.19938e-14)
(-1.58368e-05 4.042e-07 2.20761e-14)
(-1.59567e-05 4.03946e-07 2.21584e-14)
(-1.60784e-05 4.03691e-07 2.22408e-14)
(-1.6202e-05 4.03435e-07 2.23232e-14)
(-1.63275e-05 4.03178e-07 2.24056e-14)
(-1.64549e-05 4.0292e-07 2.24878e-14)
(-1.65844e-05 4.02662e-07 2.257e-14)
(-1.67159e-05 4.02402e-07 2.26521e-14)
(-1.68496e-05 4.02142e-07 2.27338e-14)
(-1.69853e-05 4.01882e-07 2.28156e-14)
(-1.71233e-05 4.0162e-07 2.28967e-14)
(-1.72635e-05 4.01359e-07 2.29779e-14)
(-4.55648e-09 4.62994e-07 -9.20444e-05)
(-1.48976e-05 4.05444e-07 2.01831e-14)
(-1.50029e-05 4.05186e-07 2.02564e-14)
(-1.51099e-05 4.04927e-07 2.03297e-14)
(-1.52183e-05 4.04666e-07 2.04031e-14)
(-1.53283e-05 4.04404e-07 2.04765e-14)
(-1.54399e-05 4.0414e-07 2.05499e-14)
(-1.55531e-05 4.03875e-07 2.06235e-14)
(-1.5668e-05 4.03608e-07 2.06969e-14)
(-1.57846e-05 4.0334e-07 2.07702e-14)
(-1.5903e-05 4.03071e-07 2.08436e-14)
(-1.60232e-05 4.028e-07 2.09168e-14)
(-1.61451e-05 4.02527e-07 2.09901e-14)
(-1.6269e-05 4.02254e-07 2.10632e-14)
(-1.63948e-05 4.01979e-07 2.11359e-14)
(-1.65225e-05 4.01703e-07 2.12087e-14)
(-1.66522e-05 4.01425e-07 2.12808e-14)
(-1.6784e-05 4.01147e-07 2.13527e-14)
(-1.69179e-05 4.00867e-07 2.14245e-14)
(-1.70539e-05 4.00587e-07 2.14961e-14)
(-1.71922e-05 4.00305e-07 2.15668e-14)
(-1.73326e-05 4.00022e-07 2.16376e-14)
(-4.55648e-09 4.62959e-07 -9.20373e-05)
(-1.49627e-05 4.0445e-07 1.9027e-14)
(-1.50684e-05 4.04178e-07 1.90919e-14)
(-1.51756e-05 4.03905e-07 1.91572e-14)
(-1.52843e-05 4.0363e-07 1.92221e-14)
(-1.53946e-05 4.03353e-07 1.92875e-14)
(-1.55064e-05 4.03074e-07 1.93524e-14)
(-1.56199e-05 4.02793e-07 1.94173e-14)
(-1.57351e-05 4.02511e-07 1.94821e-14)
(-1.5852e-05 4.02227e-07 1.95467e-14)
(-1.59707e-05 4.01941e-07 1.96109e-14)
(-1.60911e-05 4.01653e-07 1.96751e-14)
(-1.62134e-05 4.01364e-07 1.9739e-14)
(-1.63375e-05 4.01073e-07 1.98026e-14)
(-1.64636e-05 4.0078e-07 1.98658e-14)
(-1.65916e-05 4.00485e-07 1.99287e-14)
(-1.67216e-05 4.00189e-07 1.99912e-14)
(-1.68536e-05 3.99892e-07 2.00533e-14)
(-1.69878e-05 3.99592e-07 2.01148e-14)
(-1.71241e-05 3.99292e-07 2.01758e-14)
(-1.72626e-05 3.98989e-07 2.02365e-14)
(-1.74034e-05 3.98685e-07 2.02964e-14)
(-4.55647e-09 4.62923e-07 -9.20301e-05)
(-1.50292e-05 4.03456e-07 1.78702e-14)
(-1.51351e-05 4.0317e-07 1.79273e-14)
(-1.52426e-05 4.02883e-07 1.79844e-14)
(-1.53516e-05 4.02593e-07 1.80412e-14)
(-1.54622e-05 4.02301e-07 1.8098e-14)
(-1.55743e-05 4.02008e-07 1.81546e-14)
(-1.56881e-05 4.01712e-07 1.82106e-14)
(-1.58036e-05 4.01414e-07 1.82668e-14)
(-1.59208e-05 4.01113e-07 1.83225e-14)
(-1.60398e-05 4.00811e-07 1.83778e-14)
(-1.61605e-05 4.00507e-07 1.8433e-14)
(-1.62831e-05 4.002e-07 1.84875e-14)
(-1.64075e-05 3.99892e-07 1.85417e-14)
(-1.65339e-05 3.99581e-07 1.85952e-14)
(-1.66622e-05 3.99268e-07 1.86487e-14)
(-1.67925e-05 3.98953e-07 1.87015e-14)
(-1.69249e-05 3.98636e-07 1.87533e-14)
(-1.70593e-05 3.98317e-07 1.88048e-14)
(-1.7196e-05 3.97997e-07 1.88557e-14)
(-1.73348e-05 3.97674e-07 1.89056e-14)
(-1.74759e-05 3.97349e-07 1.89548e-14)
(-4.55647e-09 4.62887e-07 -9.2023e-05)
(-1.50969e-05 4.02461e-07 1.67132e-14)
(-1.52031e-05 4.02162e-07 1.67625e-14)
(-1.53109e-05 4.01861e-07 1.68113e-14)
(-1.54202e-05 4.01557e-07 1.68598e-14)
(-1.55311e-05 4.0125e-07 1.69083e-14)
(-1.56436e-05 4.00941e-07 1.69562e-14)
(-1.57577e-05 4.0063e-07 1.7004e-14)
(-1.58735e-05 4.00316e-07 1.70511e-14)
(-1.5991e-05 4e-07 1.7098e-14)
(-1.61103e-05 3.99681e-07 1.71444e-14)
(-1.62313e-05 3.9936e-07 1.71901e-14)
(-1.63542e-05 3.99037e-07 1.72356e-14)
(-1.6479e-05 3.9871e-07 1.72803e-14)
(-1.66057e-05 3.98382e-07 1.73247e-14)
(-1.67343e-05 3.98051e-07 1.73679e-14)
(-1.6865e-05 3.97717e-07 1.74109e-14)
(-1.69977e-05 3.97381e-07 1.74529e-14)
(-1.71325e-05 3.97043e-07 1.74942e-14)
(-1.72694e-05 3.96702e-07 1.75346e-14)
(-1.74086e-05 3.96358e-07 1.75743e-14)
(-1.755e-05 3.96012e-07 1.76127e-14)
(-4.55647e-09 4.62852e-07 -9.20159e-05)
(-1.51658e-05 4.01467e-07 1.55556e-14)
(-1.52724e-05 4.01154e-07 1.55968e-14)
(-1.53805e-05 4.00838e-07 1.56377e-14)
(-1.54901e-05 4.0052e-07 1.5678e-14)
(-1.56013e-05 4.00199e-07 1.57178e-14)
(-1.57142e-05 3.99875e-07 1.57576e-14)
(-1.58286e-05 3.99548e-07 1.57966e-14)
(-1.59447e-05 3.99219e-07 1.58351e-14)
(-1.60626e-05 3.98887e-07 1.5873e-14)
(-1.61822e-05 3.98552e-07 1.59103e-14)
(-1.63036e-05 3.98214e-07 1.5947e-14)
(-1.64268e-05 3.97873e-07 1.59833e-14)
(-1.65519e-05 3.97529e-07 1.60186e-14)
(-1.6679e-05 3.97183e-07 1.60534e-14)
(-1.6808e-05 3.96833e-07 1.6087e-14)
(-1.6939e-05 3.96481e-07 1.61201e-14)
(-1.7072e-05 3.96126e-07 1.61521e-14)
(-1.72072e-05 3.95768e-07 1.61832e-14)
(-1.73445e-05 3.95407e-07 1.62134e-14)
(-1.74841e-05 3.95043e-07 1.62422e-14)
(-1.76259e-05 3.94676e-07 1.62703e-14)
(-4.55646e-09 4.62816e-07 -9.20088e-05)
(-1.5236e-05 4.00473e-07 1.43981e-14)
(-1.53429e-05 4.00146e-07 1.44313e-14)
(-1.54514e-05 3.99816e-07 1.44637e-14)
(-1.55613e-05 3.99484e-07 1.44957e-14)
(-1.56729e-05 3.99148e-07 1.45274e-14)
(-1.57861e-05 3.98809e-07 1.45585e-14)
(-1.59009e-05 3.98467e-07 1.45887e-14)
(-1.60174e-05 3.98122e-07 1.46188e-14)
(-1.61356e-05 3.97773e-07 1.46477e-14)
(-1.62555e-05 3.97422e-07 1.4676e-14)
(-1.63773e-05 3.97067e-07 1.47037e-14)
(-1.65009e-05 3.96709e-07 1.47306e-14)
(-1.66264e-05 3.96348e-07 1.47563e-14)
(-1.67538e-05 3.95984e-07 1.47813e-14)
(-1.68832e-05 3.95616e-07 1.48057e-14)
(-1.70145e-05 3.95245e-07 1.48287e-14)
(-1.7148e-05 3.94871e-07 1.48508e-14)
(-1.72835e-05 3.94493e-07 1.48718e-14)
(-1.74212e-05 3.94112e-07 1.48913e-14)
(-1.75612e-05 3.93727e-07 1.49097e-14)
(-1.77034e-05 3.93339e-07 1.49272e-14)
(-4.55646e-09 4.6278e-07 -9.20016e-05)
(-1.53075e-05 3.99479e-07 1.324e-14)
(-1.54147e-05 3.99138e-07 1.32651e-14)
(-1.55235e-05 3.98794e-07 1.32895e-14)
(-1.56339e-05 3.98447e-07 1.33133e-14)
(-1.57458e-05 3.98096e-07 1.33365e-14)
(-1.58593e-05 3.97742e-07 1.3359e-14)
(-1.59745e-05 3.97385e-07 1.33807e-14)
(-1.60914e-05 3.97024e-07 1.34018e-14)
(-1.621e-05 3.9666e-07 1.34222e-14)
(-1.63303e-05 3.96292e-07 1.34414e-14)
(-1.64525e-05 3.95921e-07 1.346e-14)
(-1.65764e-05 3.95546e-07 1.34773e-14)
(-1.67023e-05 3.95167e-07 1.34938e-14)
(-1.68301e-05 3.94785e-07 1.35092e-14)
(-1.69599e-05 3.94399e-07 1.35239e-14)
(-1.70917e-05 3.94009e-07 1.35372e-14)
(-1.72255e-05 3.93615e-07 1.35487e-14)
(-1.73615e-05 3.93218e-07 1.35596e-14)
(-1.74996e-05 3.92817e-07 1.35694e-14)
(-1.76399e-05 3.92411e-07 1.35772e-14)
(-1.77825e-05 3.92002e-07 1.3584e-14)
(-4.55645e-09 4.62745e-07 -9.19945e-05)
(-1.53801e-05 3.98485e-07 1.20816e-14)
(-1.54878e-05 3.9813e-07 1.20984e-14)
(-1.5597e-05 3.97772e-07 1.2115e-14)
(-1.57077e-05 3.9741e-07 1.21306e-14)
(-1.582e-05 3.97045e-07 1.21452e-14)
(-1.59339e-05 3.96676e-07 1.21591e-14)
(-1.60495e-05 3.96303e-07 1.21724e-14)
(-1.61667e-05 3.95927e-07 1.21846e-14)
(-1.62857e-05 3.95547e-07 1.2196e-14)
(-1.64065e-05 3.95162e-07 1.22063e-14)
(-1.6529e-05 3.94774e-07 1.22156e-14)
(-1.66534e-05 3.94382e-07 1.22239e-14)
(-1.67797e-05 3.93986e-07 1.2231e-14)
(-1.69079e-05 3.93586e-07 1.22368e-14)
(-1.70381e-05 3.93181e-07 1.22415e-14)
(-1.71703e-05 3.92773e-07 1.22451e-14)
(-1.73046e-05 3.9236e-07 1.2247e-14)
(-1.7441e-05 3.91943e-07 1.22474e-14)
(-1.75796e-05 3.91522e-07 1.22464e-14)
(-1.77203e-05 3.91096e-07 1.2244e-14)
(-1.78634e-05 3.90666e-07 1.224e-14)
(-4.55645e-09 4.62709e-07 -9.19874e-05)
(-1.54362e-05 3.98716e-07 1.08309e-14)
(-1.55441e-05 3.98356e-07 1.08401e-14)
(-1.56536e-05 3.97993e-07 1.08485e-14)
(-1.57646e-05 3.97625e-07 1.08563e-14)
(-1.58772e-05 3.97254e-07 1.08631e-14)
(-1.59914e-05 3.96879e-07 1.08692e-14)
(-1.61072e-05 3.965e-07 1.08743e-14)
(-1.62248e-05 3.96117e-07 1.08782e-14)
(-1.6344e-05 3.9573e-07 1.08812e-14)
(-1.64651e-05 3.95338e-07 1.08831e-14)
(-1.65879e-05 3.94943e-07 1.08837e-14)
(-1.67126e-05 3.94544e-07 1.08835e-14)
(-1.68392e-05 3.9414e-07 1.08815e-14)
(-1.69677e-05 3.93732e-07 1.08787e-14)
(-1.70982e-05 3.93319e-07 1.08741e-14)
(-1.72307e-05 3.92902e-07 1.08686e-14)
(-1.73653e-05 3.92481e-07 1.08611e-14)
(-1.7502e-05 3.92055e-07 1.08526e-14)
(-1.76409e-05 3.91624e-07 1.08418e-14)
(-1.7782e-05 3.91188e-07 1.08299e-14)
(-1.79253e-05 3.90748e-07 1.08162e-14)
(-4.57962e-09 4.62671e-07 -9.19798e-05)
(-1.54675e-05 4.00732e-07 9.56639e-15)
(-1.55755e-05 4.00379e-07 9.56947e-15)
(-1.56851e-05 4.00023e-07 9.57172e-15)
(-1.57962e-05 3.99663e-07 9.57281e-15)
(-1.59088e-05 3.99299e-07 9.57357e-15)
(-1.60232e-05 3.98931e-07 9.57286e-15)
(-1.61391e-05 3.98559e-07 9.57111e-15)
(-1.62568e-05 3.98183e-07 9.56858e-15)
(-1.63762e-05 3.97803e-07 9.56516e-15)
(-1.64973e-05 3.97419e-07 9.55996e-15)
(-1.66203e-05 3.97031e-07 9.55403e-15)
(-1.67451e-05 3.96638e-07 9.54666e-15)
(-1.68718e-05 3.96242e-07 9.53805e-15)
(-1.70004e-05 3.95841e-07 9.52807e-15)
(-1.7131e-05 3.95435e-07 9.51685e-15)
(-1.72636e-05 3.95025e-07 9.50425e-15)
(-1.73983e-05 3.94611e-07 9.48962e-15)
(-1.75351e-05 3.94191e-07 9.47355e-15)
(-1.7674e-05 3.93768e-07 9.45581e-15)
(-1.78152e-05 3.93339e-07 9.43636e-15)
(-1.79587e-05 3.92906e-07 9.41524e-15)
(-4.636e-09 4.62631e-07 -9.19717e-05)
(-1.54991e-05 4.02803e-07 8.28172e-15)
(-1.56072e-05 4.02458e-07 8.27839e-15)
(-1.57169e-05 4.0211e-07 8.27405e-15)
(-1.58281e-05 4.01758e-07 8.26863e-15)
(-1.59409e-05 4.01402e-07 8.26265e-15)
(-1.60553e-05 4.01042e-07 8.25543e-15)
(-1.61714e-05 4.00678e-07 8.24712e-15)
(-1.62892e-05 4.00311e-07 8.23757e-15)
(-1.64087e-05 3.99939e-07 8.22707e-15)
(-1.65299e-05 3.99563e-07 8.21526e-15)
(-1.6653e-05 3.99183e-07 8.20217e-15)
(-1.67779e-05 3.98799e-07 8.18809e-15)
(-1.69047e-05 3.9841e-07 8.17224e-15)
(-1.70334e-05 3.98017e-07 8.15515e-15)
(-1.71642e-05 3.9762e-07 8.13625e-15)
(-1.72969e-05 3.97218e-07 8.1165e-15)
(-1.74317e-05 3.96812e-07 8.09482e-15)
(-1.75686e-05 3.96401e-07 8.07151e-15)
(-1.77077e-05 3.95985e-07 8.04649e-15)
(-1.7849e-05 3.95565e-07 8.0195e-15)
(-1.79925e-05 3.9514e-07 7.9904e-15)
(-4.69233e-09 4.6259e-07 -9.19636e-05)
(-1.55313e-05 4.0492e-07 7.08283e-15)
(-1.56396e-05 4.04584e-07 7.07344e-15)
(-1.57493e-05 4.04244e-07 7.06307e-15)
(-1.58607e-05 4.039e-07 7.05206e-15)
(-1.59736e-05 4.03553e-07 7.03989e-15)
(-1.60881e-05 4.03202e-07 7.02668e-15)
(-1.62043e-05 4.02847e-07 7.01209e-15)
(-1.63222e-05 4.02488e-07 6.99654e-15)
(-1.64418e-05 4.02125e-07 6.9798e-15)
(-1.65632e-05 4.01758e-07 6.96193e-15)
(-1.66864e-05 4.01387e-07 6.94266e-15)
(-1.68114e-05 4.01012e-07 6.92217e-15)
(-1.69384e-05 4.00632e-07 6.89969e-15)
(-1.70672e-05 4.00248e-07 6.87643e-15)
(-1.7198e-05 3.9986e-07 6.85157e-15)
(-1.73309e-05 3.99467e-07 6.82458e-15)
(-1.74658e-05 3.9907e-07 6.79629e-15)
(-1.76028e-05 3.98668e-07 6.76655e-15)
(-1.7742e-05 3.98261e-07 6.73457e-15)
(-1.78835e-05 3.9785e-07 6.701e-15)
(-1.80271e-05 3.97434e-07 6.66576e-15)
(-4.74874e-09 4.62549e-07 -9.19554e-05)
(-1.5564e-05 4.07082e-07 5.9694e-15)
(-1.56724e-05 4.06755e-07 5.95489e-15)
(-1.57823e-05 4.06424e-07 5.9393e-15)
(-1.58938e-05 4.0609e-07 5.92303e-15)
(-1.60069e-05 4.05752e-07 5.90558e-15)
(-1.61215e-05 4.05411e-07 5.88693e-15)
(-1.62379e-05 4.05065e-07 5.86691e-15)
(-1.63559e-05 4.04716e-07 5.84582e-15)
(-1.64756e-05 4.04362e-07 5.82356e-15)
(-1.65972e-05 4.04005e-07 5.79998e-15)
(-1.67205e-05 4.03644e-07 5.7751e-15)
(-1.68456e-05 4.03278e-07 5.74872e-15)
(-1.69727e-05 4.02908e-07 5.72087e-15)
(-1.71017e-05 4.02534e-07 5.69178e-15)
(-1.72326e-05 4.02155e-07 5.66105e-15)
(-1.73656e-05 4.01772e-07 5.6284e-15)
(-1.75007e-05 4.01385e-07 5.59447e-15)
(-1.76378e-05 4.00993e-07 5.55883e-15)
(-1.77771e-05 4.00596e-07 5.52121e-15)
(-1.79187e-05 4.00194e-07 5.48142e-15)
(-1.80625e-05 3.99788e-07 5.44016e-15)
(-4.80523e-09 4.62509e-07 -9.19473e-05)
(-1.55973e-05 4.09289e-07 4.94249e-15)
(-1.57059e-05 4.08972e-07 4.92335e-15)
(-1.58159e-05 4.08651e-07 4.90299e-15)
(-1.59275e-05 4.08327e-07 4.88183e-15)
(-1.60407e-05 4.07999e-07 4.8596e-15)
(-1.61555e-05 4.07668e-07 4.83595e-15)
(-1.6272e-05 4.07332e-07 4.81139e-15)
(-1.63902e-05 4.06993e-07 4.78559e-15)
(-1.65101e-05 4.0665e-07 4.75847e-15)
(-1.66317e-05 4.06303e-07 4.72992e-15)
(-1.67552e-05 4.05951e-07 4.70015e-15)
(-1.68805e-05 4.05596e-07 4.66895e-15)
(-1.70077e-05 4.05237e-07 4.63641e-15)
(-1.71368e-05 4.04873e-07 4.60207e-15)
(-1.72679e-05 4.04505e-07 4.56616e-15)
(-1.7401e-05 4.04133e-07 4.52883e-15)
(-1.75362e-05 4.03756e-07 4.48953e-15)
(-1.76735e-05 4.03374e-07 4.44861e-15)
(-1.7813e-05 4.02988e-07 4.40566e-15)
(-1.79547e-05 4.02598e-07 4.36131e-15)
(-1.80986e-05 4.02202e-07 4.3144e-15)
(-4.86178e-09 4.62468e-07 -9.19392e-05)
(-1.56312e-05 4.11541e-07 4.00136e-15)
(-1.57399e-05 4.11234e-07 3.97832e-15)
(-1.58501e-05 4.10924e-07 3.95408e-15)
(-1.59618e-05 4.1061e-07 3.92875e-15)
(-1.60752e-05 4.10293e-07 3.90244e-15)
(-1.61901e-05 4.09972e-07 3.87482e-15)
(-1.63067e-05 4.09648e-07 3.84618e-15)
(-1.64251e-05 4.09319e-07 3.81597e-15)
(-1.65451e-05 4.08987e-07 3.78465e-15)
(-1.66669e-05 4.08651e-07 3.75206e-15)
(-1.67905e-05 4.08311e-07 3.71794e-15)
(-1.6916e-05 4.07967e-07 3.68244e-15)
(-1.70433e-05 4.07618e-07 3.64548e-15)
(-1.71726e-05 4.07266e-07 3.60683e-15)
(-1.73039e-05 4.06909e-07 3.56691e-15)
(-1.74371e-05 4.06548e-07 3.52508e-15)
(-1.75725e-05 4.06183e-07 3.48179e-15)
(-1.77099e-05 4.05813e-07 3.43633e-15)
(-1.78496e-05 4.05439e-07 3.38926e-15)
(-1.79914e-05 4.0506e-07 3.34006e-15)
(-1.81356e-05 4.04676e-07 3.28908e-15)
(-4.9184e-09 4.62427e-07 -9.1931e-05)
(-1.56656e-05 4.13837e-07 3.14744e-15)
(-1.57744e-05 4.13541e-07 3.12053e-15)
(-1.58848e-05 4.13242e-07 3.09275e-15)
(-1.59967e-05 4.1294e-07 3.06399e-15)
(-1.61102e-05 4.12634e-07 3.03417e-15)
(-1.62253e-05 4.12324e-07 3.00292e-15)
(-1.63421e-05 4.12011e-07 2.97047e-15)
(-1.64606e-05 4.11694e-07 2.93696e-15)
(-1.65808e-05 4.11374e-07 2.90229e-15)
(-1.67027e-05 4.11049e-07 2.86594e-15)
(-1.68265e-05 4.10721e-07 2.8286e-15)
(-1.69521e-05 4.10389e-07 2.78957e-15)
(-1.70796e-05 4.10053e-07 2.74917e-15)
(-1.72091e-05 4.09712e-07 2.70694e-15)
(-1.73405e-05 4.09368e-07 2.66319e-15)
(-1.74739e-05 4.09019e-07 2.61797e-15)
(-1.76095e-05 4.08666e-07 2.57101e-15)
(-1.77471e-05 4.08308e-07 2.52191e-15)
(-1.78869e-05 4.07947e-07 2.47132e-15)
(-1.80289e-05 4.0758e-07 2.41867e-15)
(-1.81732e-05 4.07209e-07 2.36415e-15)
(-4.97507e-09 4.62386e-07 -9.19229e-05)
(-1.57006e-05 4.16177e-07 2.3792e-15)
(-1.58096e-05 4.15893e-07 2.34975e-15)
(-1.59201e-05 4.15606e-07 2.31946e-15)
(-1.60321e-05 4.15315e-07 2.28752e-15)
(-1.61458e-05 4.15021e-07 2.25527e-15)
(-1.62611e-05 4.14724e-07 2.2206e-15)
(-1.6378e-05 4.14423e-07 2.18595e-15)
(-1.64967e-05 4.14118e-07 2.14952e-15)
(-1.6617e-05 4.1381e-07 2.11186e-15)
(-1.67392e-05 4.13498e-07 2.07228e-15)
(-1.68631e-05 4.13182e-07 2.0325e-15)
(-1.69889e-05 4.12862e-07 1.99032e-15)
(-1.71166e-05 4.12539e-07 1.94715e-15)
(-1.72462e-05 4.12211e-07 1.90223e-15)
(-1.73778e-05 4.1188e-07 1.85558e-15)
(-1.75115e-05 4.11544e-07 1.80746e-15)
(-1.76471e-05 4.11204e-07 1.7576e-15)
(-1.7785e-05 4.1086e-07 1.70585e-15)
(-1.79249e-05 4.10511e-07 1.65247e-15)
(-1.80671e-05 4.10158e-07 1.59703e-15)
(-1.82116e-05 4.09801e-07 1.53942e-15)
(-5.03178e-09 4.62346e-07 -9.19148e-05)
(-1.57361e-05 4.18562e-07 1.69836e-15)
(-1.58452e-05 4.1829e-07 1.66622e-15)
(-1.59559e-05 4.18015e-07 1.6336e-15)
(-1.60682e-05 4.17736e-07 1.59976e-15)
(-1.6182e-05 4.17455e-07 1.56523e-15)
(-1.62975e-05 4.1717e-07 1.52869e-15)
(-1.64146e-05 4.16882e-07 1.49095e-15)
(-1.65334e-05 4.1659e-07 1.45283e-15)
(-1.6654e-05 4.16295e-07 1.41315e-15)
(-1.67763e-05 4.15996e-07 1.37167e-15)
(-1.69004e-05 4.15693e-07 1.32913e-15)
(-1.70264e-05 4.15387e-07 1.28502e-15)
(-1.71542e-05 4.15077e-07 1.23956e-15)
(-1.72841e-05 4.14763e-07 1.1927e-15)
(-1.74158e-05 4.14445e-07 1.14359e-15)
(-1.75496e-05 4.14123e-07 1.09376e-15)
(-1.76855e-05 4.13797e-07 1.04161e-15)
(-1.78235e-05 4.13467e-07 9.87794e-16)
(-1.79637e-05 4.13133e-07 9.32475e-16)
(-1.81061e-05 4.12794e-07 8.75168e-16)
(-1.82508e-05 4.12451e-07 8.15675e-16)
(-5.08853e-09 4.62305e-07 -9.19066e-05)
(-1.57721e-05 4.20989e-07 1.10375e-15)
(-1.58815e-05 4.2073e-07 1.07053e-15)
(-1.59923e-05 4.20468e-07 1.03634e-15)
(-1.61048e-05 4.20203e-07 1.00054e-15)
(-1.62188e-05 4.19934e-07 9.64435e-16)
(-1.63344e-05 4.19663e-07 9.26651e-16)
(-1.64517e-05 4.19388e-07 8.87534e-16)
(-1.65707e-05 4.1911e-07 8.46992e-16)
(-1.66915e-05 4.18828e-07 8.05925e-16)
(-1.6814e-05 4.18543e-07 7.63389e-16)
(-1.69383e-05 4.18254e-07 7.19121e-16)
(-1.70645e-05 4.17962e-07 6.73814e-16)
(-1.71926e-05 4.17666e-07 6.27113e-16)
(-1.73225e-05 4.17366e-07 5.78376e-16)
(-1.74545e-05 4.17063e-07 5.28267e-16)
(-1.75885e-05 4.16756e-07 4.76844e-16)
(-1.77246e-05 4.16445e-07 4.23378e-16)
(-1.78628e-05 4.16129e-07 3.68734e-16)
(-1.80032e-05 4.1581e-07 3.11639e-16)
(-1.81458e-05 4.15487e-07 2.53271e-16)
(-1.82907e-05 4.15159e-07 1.92666e-16)
(-5.14532e-09 4.62264e-07 -9.18985e-05)
(-1.58088e-05 4.23459e-07 5.9641e-16)
(-1.59183e-05 4.23214e-07 5.61583e-16)
(-1.60293e-05 4.22965e-07 5.26813e-16)
(-1.61419e-05 4.22714e-07 4.90261e-16)
(-1.62562e-05 4.22459e-07 4.53043e-16)
(-1.6372e-05 4.22201e-07 4.1397e-16)
(-1.64895e-05 4.21941e-07 3.74608e-16)
(-1.66087e-05 4.21677e-07 3.33368e-16)
(-1.67296e-05 4.21409e-07 2.91209e-16)
(-1.68523e-05 4.21139e-07 2.47799e-16)
(-1.69769e-05 4.20865e-07 2.02858e-16)
(-1.71032e-05 4.20587e-07 1.566e-16)
(-1.72315e-05 4.20306e-07 1.09036e-16)
(-1.73617e-05 4.20022e-07 5.94191e-17)
(-1.74939e-05 4.19734e-07 9.25658e-18)
(-1.76281e-05 4.19442e-07 -4.31199e-17)
(-1.77644e-05 4.19146e-07 -9.68902e-17)
(-1.79029e-05 4.18847e-07 -1.52225e-16)
(-1.80434e-05 4.18544e-07 -2.097e-16)
(-1.81863e-05 4.18236e-07 -2.6856e-16)
(-1.83314e-05 4.17925e-07 -3.29622e-16)
(-5.20212e-09 4.62223e-07 -9.18904e-05)
(-1.58459e-05 4.25972e-07 1.76044e-16)
(-1.59556e-05 4.25741e-07 1.41167e-16)
(-1.60669e-05 4.25506e-07 1.05635e-16)
(-1.61797e-05 4.25269e-07 6.83552e-17)
(-1.62941e-05 4.25029e-07 3.12934e-17)
(-1.64102e-05 4.24786e-07 -7.85764e-18)
(-1.65278e-05 4.2454e-07 -4.80225e-17)
(-1.66473e-05 4.24291e-07 -8.92177e-17)
(-1.67684e-05 4.24038e-07 -1.31716e-16)
(-1.68913e-05 4.23783e-07 -1.75888e-16)
(-1.7016e-05 4.23524e-07 -2.20264e-16)
(-1.71426e-05 4.23262e-07 -2.66558e-16)
(-1.72711e-05 4.22997e-07 -3.14277e-16)
(-1.74016e-05 4.22729e-07 -3.63204e-16)
(-1.7534e-05 4.22456e-07 -4.14068e-16)
(-1.76684e-05 4.22181e-07 -4.66132e-16)
(-1.78049e-05 4.21902e-07 -5.19677e-16)
(-1.79436e-05 4.21619e-07 -5.74694e-16)
(-1.80844e-05 4.21332e-07 -6.31668e-16)
(-1.82274e-05 4.21042e-07 -6.90403e-16)
(-1.83728e-05 4.20748e-07 -7.51038e-16)
(-5.25895e-09 4.62183e-07 -9.18822e-05)
(-1.66688e-05 4.66747e-07 5.55152e-16)
(-1.6784e-05 4.66777e-07 5.58939e-16)
(-1.69007e-05 4.66807e-07 5.63225e-16)
(-1.70191e-05 4.66837e-07 5.67709e-16)
(-1.71392e-05 4.66868e-07 5.72177e-16)
(-1.7261e-05 4.669e-07 5.76711e-16)
(-1.73845e-05 4.66932e-07 5.81247e-16)
(-1.75098e-05 4.66965e-07 5.85463e-16)
(-1.76369e-05 4.66999e-07 5.9048e-16)
(-1.77659e-05 4.67033e-07 5.95167e-16)
(-1.78968e-05 4.67068e-07 6.00075e-16)
(-1.80296e-05 4.67104e-07 6.04948e-16)
(-1.81644e-05 4.6714e-07 6.10053e-16)
(-1.83013e-05 4.67178e-07 6.14756e-16)
(-1.84402e-05 4.67216e-07 6.19745e-16)
(-1.85812e-05 4.67254e-07 6.25026e-16)
(-1.87245e-05 4.67294e-07 6.3012e-16)
(-1.88699e-05 4.67334e-07 6.3598e-16)
(-1.90176e-05 4.67375e-07 6.41214e-16)
(-1.91677e-05 4.67418e-07 6.47069e-16)
(-1.93201e-05 4.67461e-07 6.525e-16)
(-6.07515e-09 4.6221e-07 -9.18876e-05)
)
;

boundaryField
{
    inlet
    {
        type            calculated;
        value           uniform (0 0 0);
    }
    outlet2
    {
        type            calculated;
        value           uniform (0 0 0);
    }
    outlet1
    {
        type            calculated;
        value           uniform (0 0 0);
    }
    wall
    {
        type            calculated;
        value           uniform (0 0 0);
    }
    symmetryBottom
    {
        type            symmetry;
    }
    symmetryZ0
    {
        type            symmetry;
    }
    symmetryZ05
    {
        type            symmetry;
    }
}


// ************************************************************************* //
