/*--------------------------------*- C++ -*----------------------------------*\
| =========                 |                                                 |
| \\      /  F ield         | OpenFOAM: The Open Source CFD Toolbox           |
|  \\    /   O peration     | Version:  2412                                  |
|   \\  /    A nd           | Website:  www.openfoam.com                      |
|    \\/     M anipulation  |                                                 |
\*---------------------------------------------------------------------------*/
FoamFile
{
    version     2.0;
    format      ascii;
    arch        "LSB;label=32;scalar=64";
    class       volScalarField;
    location    "1.68142e-07";
    object      T;
}
// * * * * * * * * * * * * * * * * * * * * * * * * * * * * * * * * * * * * * //

dimensions      [0 0 0 0 0 0 0];

internalField   nonuniform List<scalar> 
625
(
160.014
159.247
159.247
160.014
159.248
159.248
160.014
159.248
159.248
160.014
159.248
159.248
160.014
159.248
159.248
160.014
159.248
159.248
160.014
159.248
159.248
160.014
159.248
159.248
160.014
159.248
159.248
160.014
159.248
159.248
160.014
159.248
159.248
160.014
159.248
159.248
160.014
159.248
159.248
160.014
159.248
159.248
160.014
159.248
159.248
160.014
159.248
159.248
160.014
159.248
159.248
160.014
159.248
159.248
160.014
159.248
159.248
160.014
159.248
159.248
160.014
159.248
159.248
160.014
159.248
159.248
160.014
159.248
159.248
160.014
159.248
159.248
160.014
159.248
159.248
163.711
163.742
163.773
163.805
163.838
163.871
163.904
163.938
163.972
164.007
164.043
164.079
164.115
164.152
164.19
164.228
164.267
164.307
164.347
164.388
164.429
164.433
159.424
159.424
159.424
159.425
159.425
159.426
159.426
159.427
159.427
159.428
159.428
159.429
159.429
159.43
159.431
159.431
159.432
159.432
159.433
159.433
159.434
159.438
159.424
159.424
159.425
159.425
159.426
159.426
159.427
159.427
159.428
159.429
159.429
159.43
159.43
159.431
159.431
159.432
159.433
159.433
159.434
159.434
159.435
159.439
159.421
159.421
159.422
159.422
159.423
159.423
159.424
159.424
159.425
159.425
159.426
159.426
159.427
159.427
159.428
159.428
159.429
159.43
159.43
159.431
159.431
159.435
159.418
159.418
159.418
159.419
159.419
159.42
159.42
159.421
159.421
159.422
159.422
159.423
159.423
159.424
159.424
159.425
159.425
159.426
159.427
159.427
159.428
159.431
159.414
159.415
159.415
159.416
159.416
159.417
159.417
159.417
159.418
159.418
159.419
159.419
159.42
159.42
159.421
159.421
159.422
159.422
159.423
159.423
159.424
159.428
159.411
159.412
159.412
159.412
159.413
159.413
159.414
159.414
159.414
159.415
159.415
159.416
159.416
159.417
159.417
159.418
159.418
159.419
159.419
159.42
159.42
159.424
159.408
159.408
159.409
159.409
159.409
159.41
159.41
159.411
159.411
159.412
159.412
159.412
159.413
159.413
159.414
159.414
159.415
159.415
159.416
159.416
159.417
159.42
159.405
159.405
159.405
159.406
159.406
159.407
159.407
159.407
159.408
159.408
159.409
159.409
159.409
159.41
159.41
159.411
159.411
159.411
159.412
159.412
159.413
159.417
159.402
159.402
159.402
159.403
159.403
159.403
159.404
159.404
159.404
159.405
159.405
159.405
159.406
159.406
159.407
159.407
159.407
159.408
159.408
159.409
159.409
159.413
159.398
159.399
159.399
159.399
159.4
159.4
159.4
159.401
159.401
159.401
159.402
159.402
159.402
159.403
159.403
159.403
159.404
159.404
159.405
159.405
159.405
159.409
159.395
159.395
159.396
159.396
159.396
159.397
159.397
159.397
159.398
159.398
159.398
159.399
159.399
159.399
159.4
159.4
159.4
159.401
159.401
159.401
159.402
159.405
159.392
159.392
159.392
159.393
159.393
159.393
159.394
159.394
159.394
159.394
159.395
159.395
159.395
159.396
159.396
159.396
159.397
159.397
159.397
159.398
159.398
159.402
159.389
159.389
159.389
159.39
159.39
159.39
159.39
159.391
159.391
159.391
159.391
159.392
159.392
159.392
159.392
159.393
159.393
159.393
159.394
159.394
159.394
159.398
159.386
159.386
159.386
159.386
159.386
159.387
159.387
159.387
159.387
159.388
159.388
159.388
159.388
159.389
159.389
159.389
159.389
159.39
159.39
159.39
159.391
159.394
159.382
159.383
159.383
159.383
159.383
159.383
159.384
159.384
159.384
159.384
159.384
159.385
159.385
159.385
159.385
159.386
159.386
159.386
159.386
159.387
159.387
159.391
159.379
159.379
159.38
159.38
159.38
159.38
159.38
159.38
159.381
159.381
159.381
159.381
159.381
159.382
159.382
159.382
159.382
159.383
159.383
159.383
159.383
159.387
159.376
159.376
159.376
159.376
159.377
159.377
159.377
159.377
159.377
159.377
159.378
159.378
159.378
159.378
159.378
159.379
159.379
159.379
159.379
159.379
159.38
159.383
159.373
159.373
159.373
159.373
159.373
159.373
159.374
159.374
159.374
159.374
159.374
159.374
159.374
159.375
159.375
159.375
159.375
159.375
159.375
159.376
159.376
159.38
159.37
159.37
159.37
159.37
159.37
159.37
159.37
159.37
159.371
159.371
159.371
159.371
159.371
159.371
159.371
159.371
159.372
159.372
159.372
159.372
159.372
159.376
159.366
159.366
159.367
159.367
159.367
159.367
159.367
159.367
159.367
159.367
159.367
159.367
159.368
159.368
159.368
159.368
159.368
159.368
159.368
159.368
159.368
159.372
159.363
159.363
159.363
159.363
159.363
159.364
159.364
159.364
159.364
159.364
159.364
159.364
159.364
159.364
159.364
159.364
159.364
159.364
159.365
159.365
159.365
159.368
159.36
159.36
159.36
159.36
159.36
159.36
159.36
159.36
159.36
159.36
159.36
159.36
159.361
159.361
159.361
159.361
159.361
159.361
159.361
159.361
159.361
159.365
159.357
159.357
159.357
159.357
159.357
159.357
159.357
159.357
159.357
159.357
159.357
159.357
159.357
159.357
159.357
159.357
159.357
159.357
159.357
159.357
159.357
159.361
159.354
159.354
159.354
159.354
159.354
159.354
159.354
159.354
159.354
159.354
159.354
159.354
159.354
159.353
159.353
159.353
159.353
159.353
159.353
159.353
159.353
159.357
)
;

boundaryField
{
    inlet
    {
        type            calculated;
        value           uniform 0;
    }
    outlet2
    {
        type            calculated;
        value           uniform 0;
    }
    outlet1
    {
        type            calculated;
        value           uniform 0;
    }
    wall
    {
        type            calculated;
        value           uniform 0;
    }
    symmetryBottom
    {
        type            symmetry;
    }
    symmetryZ0
    {
        type            symmetry;
    }
    symmetryZ05
    {
        type            symmetry;
    }
}


// ************************************************************************* //
