/*--------------------------------*- C++ -*----------------------------------*\
| =========                 |                                                 |
| \\      /  F ield         | OpenFOAM: The Open Source CFD Toolbox           |
|  \\    /   O peration     | Version:  2412                                  |
|   \\  /    A nd           | Website:  www.openfoam.com                      |
|    \\/     M anipulation  |                                                 |
\*---------------------------------------------------------------------------*/
FoamFile
{
    version     2.0;
    format      ascii;
    arch        "LSB;label=32;scalar=64";
    class       volVectorField;
    location    "1.68142e-07";
    object      U;
}
// * * * * * * * * * * * * * * * * * * * * * * * * * * * * * * * * * * * * * //

dimensions      [0 0 0 0 0 0 0];

internalField   nonuniform List<vector> 
625
(
(2646.37 -0.000150595 0.000626828)
(2646.2 -0.000706073 0.00103841)
(2646.2 -0.000708141 2.18935e-06)
(2646.38 -0.279024 0.000626829)
(2646.21 -0.283555 0.00103841)
(2646.21 -0.283557 -2.15307e-06)
(2646.38 -0.278955 0.000626829)
(2646.21 -0.283484 0.00103841)
(2646.21 -0.283486 -2.1428e-06)
(2646.38 -0.278955 0.000626829)
(2646.21 -0.283484 0.00103841)
(2646.21 -0.283486 -2.1428e-06)
(2646.38 -0.278955 0.000626829)
(2646.21 -0.283484 0.00103841)
(2646.21 -0.283486 -2.1428e-06)
(2646.38 -0.278955 0.000626829)
(2646.21 -0.283484 0.00103841)
(2646.21 -0.283486 -2.1428e-06)
(2646.38 -0.278955 0.000626829)
(2646.21 -0.283484 0.00103841)
(2646.21 -0.283486 -2.1428e-06)
(2646.38 -0.278955 0.000626829)
(2646.21 -0.283484 0.00103841)
(2646.21 -0.283486 -2.1428e-06)
(2646.38 -0.278955 0.000626829)
(2646.21 -0.283484 0.00103841)
(2646.21 -0.283486 -2.1428e-06)
(2646.38 -0.278955 0.000626829)
(2646.21 -0.283484 0.00103841)
(2646.21 -0.283486 -2.1428e-06)
(2646.38 -0.278955 0.000626829)
(2646.21 -0.283484 0.00103841)
(2646.21 -0.283486 -2.1428e-06)
(2646.38 -0.278955 0.000626829)
(2646.21 -0.283484 0.00103841)
(2646.21 -0.283486 -2.1428e-06)
(2646.38 -0.278955 0.000626829)
(2646.21 -0.283484 0.00103841)
(2646.21 -0.283486 -2.1428e-06)
(2646.38 -0.278955 0.000626829)
(2646.21 -0.283484 0.00103841)
(2646.21 -0.283486 -2.1428e-06)
(2646.38 -0.278955 0.000626829)
(2646.21 -0.283484 0.00103841)
(2646.21 -0.283486 -2.1428e-06)
(2646.38 -0.278955 0.000626829)
(2646.21 -0.283484 0.00103841)
(2646.21 -0.283486 -2.1428e-06)
(2646.38 -0.278955 0.000626829)
(2646.21 -0.283484 0.00103841)
(2646.21 -0.283486 -2.1428e-06)
(2646.38 -0.278955 0.000626829)
(2646.21 -0.283484 0.00103841)
(2646.21 -0.283486 -2.1428e-06)
(2646.38 -0.278955 0.000626829)
(2646.21 -0.283484 0.00103841)
(2646.21 -0.283486 -2.1428e-06)
(2646.38 -0.278955 0.000626829)
(2646.21 -0.283484 0.00103841)
(2646.21 -0.283486 -2.1428e-06)
(2646.38 -0.278955 0.000626829)
(2646.21 -0.283484 0.00103841)
(2646.21 -0.283486 -2.1428e-06)
(2646.38 -0.278955 0.000626829)
(2646.21 -0.283484 0.00103841)
(2646.21 -0.283486 -2.1428e-06)
(2646.38 -0.278955 0.000626829)
(2646.21 -0.283484 0.00103841)
(2646.21 -0.283486 -2.1428e-06)
(2646.38 -0.278955 0.000626829)
(2646.21 -0.283484 0.00103841)
(2646.21 -0.283486 -2.1428e-06)
(2646.37 -0.278938 0.000627086)
(2646.2 -0.282913 0.0010388)
(2646.2 -0.282915 0.00103647)
(2645.26 0.00496288 0.0010701)
(2645.26 0.00503911 0.00107035)
(2645.25 0.00511699 0.00107061)
(2645.24 0.00519656 0.00107087)
(2645.23 0.00527788 0.00107113)
(2645.23 0.005361 0.00107139)
(2645.22 0.00544597 0.00107166)
(2645.21 0.00553284 0.00107194)
(2645.2 0.00562167 0.00107221)
(2645.2 0.00571253 0.00107249)
(2645.19 0.00580546 0.00107278)
(2645.18 0.00590054 0.00107307)
(2645.17 0.00599782 0.00107336)
(2645.16 0.00609738 0.00107366)
(2645.15 0.00619929 0.00107397)
(2645.15 0.00630362 0.00107427)
(2645.14 0.00641044 0.00107459)
(2645.13 0.00651984 0.0010749)
(2645.12 0.0066319 0.00107523)
(2645.11 0.0067467 0.00107555)
(2645.1 0.00686434 0.00107589)
(2645.1 0.00693465 6.17691e-05)
(2646.27 -0.283218 0.0010566)
(2646.27 -0.285162 0.00105676)
(2646.27 -0.287133 0.00105691)
(2646.27 -0.289131 0.00105707)
(2646.27 -0.291157 0.00105723)
(2646.27 -0.293212 0.0010574)
(2646.27 -0.295296 0.00105756)
(2646.27 -0.297409 0.00105773)
(2646.27 -0.299554 0.0010579)
(2646.27 -0.301729 0.00105808)
(2646.27 -0.303936 0.00105825)
(2646.27 -0.306176 0.00105843)
(2646.27 -0.308449 0.00105861)
(2646.27 -0.310756 0.0010588)
(2646.27 -0.313098 0.00105898)
(2646.27 -0.315475 0.00105917)
(2646.27 -0.317889 0.00105937)
(2646.27 -0.32034 0.00105956)
(2646.27 -0.322829 0.00105976)
(2646.27 -0.325357 0.00105996)
(2646.27 -0.327924 0.00106017)
(2646.28 -0.327901 -1.03382e-05)
(2646.27 -0.284537 0.00105681)
(2646.27 -0.286499 0.00105697)
(2646.27 -0.288489 0.00105713)
(2646.27 -0.290506 0.00105729)
(2646.27 -0.292551 0.00105745)
(2646.27 -0.294626 0.00105762)
(2646.27 -0.29673 0.00105778)
(2646.27 -0.298865 0.00105795)
(2646.27 -0.30103 0.00105813)
(2646.27 -0.303227 0.0010583)
(2646.27 -0.305456 0.00105848)
(2646.27 -0.307719 0.00105866)
(2646.27 -0.310015 0.00105884)
(2646.27 -0.312346 0.00105903)
(2646.27 -0.314711 0.00105922)
(2646.27 -0.317114 0.00105941)
(2646.27 -0.319553 0.0010596)
(2646.27 -0.322029 0.0010598)
(2646.27 -0.324545 0.00106)
(2646.27 -0.3271 0.00106021)
(2646.27 -0.329696 0.00106041)
(2646.27 -0.329672 -9.86831e-06)
(2646.27 -0.284568 0.00105701)
(2646.27 -0.286531 0.00105717)
(2646.27 -0.288521 0.00105733)
(2646.27 -0.290538 0.00105749)
(2646.27 -0.292584 0.00105766)
(2646.27 -0.294659 0.00105782)
(2646.27 -0.296764 0.00105799)
(2646.27 -0.298899 0.00105816)
(2646.27 -0.301065 0.00105834)
(2646.27 -0.303262 0.00105852)
(2646.27 -0.305492 0.0010587)
(2646.27 -0.307755 0.00105888)
(2646.27 -0.310052 0.00105906)
(2646.27 -0.312383 0.00105925)
(2646.27 -0.31475 0.00105944)
(2646.27 -0.317152 0.00105963)
(2646.27 -0.319592 0.00105983)
(2646.27 -0.322069 0.00106003)
(2646.27 -0.324585 0.00106023)
(2646.27 -0.327141 0.00106044)
(2646.27 -0.329738 0.00106065)
(2646.27 -0.329713 -9.50731e-06)
(2646.27 -0.2846 0.00105721)
(2646.27 -0.286562 0.00105737)
(2646.27 -0.288553 0.00105753)
(2646.27 -0.290571 0.0010577)
(2646.27 -0.292617 0.00105786)
(2646.27 -0.294693 0.00105803)
(2646.27 -0.296798 0.0010582)
(2646.27 -0.298933 0.00105838)
(2646.27 -0.3011 0.00105855)
(2646.27 -0.303298 0.00105873)
(2646.27 -0.305528 0.00105891)
(2646.27 -0.307792 0.00105909)
(2646.27 -0.310089 0.00105928)
(2646.27 -0.312421 0.00105947)
(2646.27 -0.314788 0.00105966)
(2646.27 -0.317191 0.00105986)
(2646.27 -0.319631 0.00106005)
(2646.27 -0.322109 0.00106026)
(2646.27 -0.324626 0.00106046)
(2646.27 -0.327182 0.00106067)
(2646.27 -0.329779 0.00106088)
(2646.27 -0.329755 -9.14631e-06)
(2646.26 -0.284631 0.00105741)
(2646.27 -0.286594 0.00105757)
(2646.27 -0.288585 0.00105774)
(2646.27 -0.290603 0.0010579)
(2646.27 -0.29265 0.00105807)
(2646.27 -0.294726 0.00105824)
(2646.27 -0.296832 0.00105841)
(2646.27 -0.298968 0.00105859)
(2646.27 -0.301135 0.00105876)
(2646.27 -0.303333 0.00105894)
(2646.27 -0.305564 0.00105913)
(2646.27 -0.307828 0.00105931)
(2646.27 -0.310126 0.0010595)
(2646.27 -0.312458 0.00105969)
(2646.27 -0.314826 0.00105988)
(2646.27 -0.31723 0.00106008)
(2646.27 -0.31967 0.00106028)
(2646.27 -0.322149 0.00106048)
(2646.27 -0.324667 0.00106069)
(2646.27 -0.327224 0.0010609)
(2646.27 -0.329821 0.00106111)
(2646.27 -0.329796 -8.78531e-06)
(2646.26 -0.284662 0.00105761)
(2646.26 -0.286626 0.00105778)
(2646.26 -0.288617 0.00105794)
(2646.26 -0.290636 0.00105811)
(2646.26 -0.292683 0.00105828)
(2646.26 -0.29476 0.00105845)
(2646.26 -0.296866 0.00105862)
(2646.26 -0.299002 0.0010588)
(2646.26 -0.30117 0.00105898)
(2646.27 -0.303369 0.00105916)
(2646.27 -0.3056 0.00105934)
(2646.27 -0.307865 0.00105953)
(2646.27 -0.310163 0.00105972)
(2646.27 -0.312496 0.00105991)
(2646.27 -0.314864 0.00106011)
(2646.27 -0.317268 0.0010603)
(2646.27 -0.31971 0.00106051)
(2646.27 -0.322189 0.00106071)
(2646.27 -0.324707 0.00106092)
(2646.27 -0.327265 0.00106113)
(2646.27 -0.329863 0.00106134)
(2646.27 -0.329838 -8.42432e-06)
(2646.26 -0.284693 0.00105781)
(2646.26 -0.286657 0.00105798)
(2646.26 -0.288649 0.00105814)
(2646.26 -0.290668 0.00105831)
(2646.26 -0.292716 0.00105848)
(2646.26 -0.294793 0.00105865)
(2646.26 -0.2969 0.00105883)
(2646.26 -0.299037 0.00105901)
(2646.26 -0.301205 0.00105919)
(2646.26 -0.303404 0.00105937)
(2646.26 -0.305636 0.00105956)
(2646.26 -0.307901 0.00105975)
(2646.26 -0.3102 0.00105994)
(2646.26 -0.312533 0.00106013)
(2646.26 -0.314902 0.00106033)
(2646.26 -0.317307 0.00106053)
(2646.26 -0.319749 0.00106073)
(2646.27 -0.322229 0.00106094)
(2646.27 -0.324748 0.00106115)
(2646.27 -0.327306 0.00106136)
(2646.27 -0.329905 0.00106158)
(2646.27 -0.329879 -8.06333e-06)
(2646.26 -0.284724 0.00105802)
(2646.26 -0.286689 0.00105818)
(2646.26 -0.288681 0.00105835)
(2646.26 -0.290701 0.00105852)
(2646.26 -0.292749 0.00105869)
(2646.26 -0.294827 0.00105886)
(2646.26 -0.296934 0.00105904)
(2646.26 -0.299071 0.00105922)
(2646.26 -0.301239 0.0010594)
(2646.26 -0.30344 0.00105959)
(2646.26 -0.305672 0.00105977)
(2646.26 -0.307938 0.00105996)
(2646.26 -0.310237 0.00106016)
(2646.26 -0.312571 0.00106035)
(2646.26 -0.31494 0.00106055)
(2646.26 -0.317346 0.00106075)
(2646.26 -0.319788 0.00106096)
(2646.26 -0.322269 0.00106117)
(2646.26 -0.324788 0.00106138)
(2646.26 -0.327347 0.00106159)
(2646.26 -0.329947 0.00106181)
(2646.27 -0.329921 -7.70234e-06)
(2646.26 -0.284756 0.00105822)
(2646.26 -0.286721 0.00105838)
(2646.26 -0.288713 0.00105855)
(2646.26 -0.290733 0.00105872)
(2646.26 -0.292782 0.0010589)
(2646.26 -0.29486 0.00105907)
(2646.26 -0.296968 0.00105925)
(2646.26 -0.299106 0.00105943)
(2646.26 -0.301274 0.00105961)
(2646.26 -0.303475 0.0010598)
(2646.26 -0.305708 0.00105999)
(2646.26 -0.307974 0.00106018)
(2646.26 -0.310274 0.00106038)
(2646.26 -0.312609 0.00106057)
(2646.26 -0.314978 0.00106077)
(2646.26 -0.317385 0.00106098)
(2646.26 -0.319828 0.00106118)
(2646.26 -0.322309 0.00106139)
(2646.26 -0.324829 0.00106161)
(2646.26 -0.327388 0.00106182)
(2646.26 -0.329989 0.00106204)
(2646.26 -0.329962 -7.34136e-06)
(2646.26 -0.284787 0.00105842)
(2646.26 -0.286752 0.00105858)
(2646.26 -0.288745 0.00105875)
(2646.26 -0.290766 0.00105893)
(2646.26 -0.292815 0.0010591)
(2646.26 -0.294894 0.00105928)
(2646.26 -0.297002 0.00105946)
(2646.26 -0.29914 0.00105964)
(2646.26 -0.301309 0.00105983)
(2646.26 -0.30351 0.00106001)
(2646.26 -0.305744 0.0010602)
(2646.26 -0.308011 0.0010604)
(2646.26 -0.310311 0.00106059)
(2646.26 -0.312646 0.00106079)
(2646.26 -0.315017 0.001061)
(2646.26 -0.317423 0.0010612)
(2646.26 -0.319867 0.00106141)
(2646.26 -0.322349 0.00106162)
(2646.26 -0.324869 0.00106184)
(2646.26 -0.32743 0.00106205)
(2646.26 -0.330031 0.00106228)
(2646.26 -0.330004 -6.98039e-06)
(2646.26 -0.284803 0.00105861)
(2646.26 -0.286769 0.00105877)
(2646.26 -0.288762 0.00105895)
(2646.26 -0.290783 0.00105912)
(2646.26 -0.292833 0.0010593)
(2646.26 -0.294912 0.00105947)
(2646.26 -0.29702 0.00105966)
(2646.26 -0.299159 0.00105984)
(2646.26 -0.301329 0.00106003)
(2646.26 -0.30353 0.00106022)
(2646.26 -0.305764 0.00106041)
(2646.26 -0.308031 0.0010606)
(2646.26 -0.310332 0.0010608)
(2646.26 -0.312667 0.001061)
(2646.26 -0.315038 0.0010612)
(2646.26 -0.317446 0.00106141)
(2646.26 -0.31989 0.00106162)
(2646.26 -0.322372 0.00106184)
(2646.26 -0.324893 0.00106205)
(2646.26 -0.327454 0.00106227)
(2646.26 -0.330055 0.0010625)
(2646.26 -0.330028 -6.5426e-06)
(2646.26 -0.284798 0.00105878)
(2646.26 -0.286764 0.00105895)
(2646.26 -0.288757 0.00105912)
(2646.26 -0.290779 0.0010593)
(2646.26 -0.292828 0.00105947)
(2646.26 -0.294907 0.00105965)
(2646.26 -0.297016 0.00105984)
(2646.26 -0.299155 0.00106002)
(2646.26 -0.301325 0.00106021)
(2646.26 -0.303527 0.0010604)
(2646.26 -0.305761 0.00106059)
(2646.26 -0.308028 0.00106079)
(2646.26 -0.310329 0.00106099)
(2646.26 -0.312665 0.00106119)
(2646.26 -0.315036 0.00106139)
(2646.26 -0.317444 0.0010616)
(2646.26 -0.319888 0.00106182)
(2646.26 -0.322371 0.00106203)
(2646.26 -0.324892 0.00106225)
(2646.26 -0.327453 0.00106247)
(2646.26 -0.330055 0.0010627)
(2646.26 -0.330028 -6.13636e-06)
(2646.26 -0.284792 0.00105895)
(2646.26 -0.286758 0.00105912)
(2646.26 -0.288752 0.00105929)
(2646.26 -0.290774 0.00105947)
(2646.26 -0.292823 0.00105965)
(2646.26 -0.294903 0.00105983)
(2646.26 -0.297011 0.00106001)
(2646.26 -0.299151 0.0010602)
(2646.26 -0.301321 0.00106039)
(2646.26 -0.303523 0.00106058)
(2646.26 -0.305757 0.00106078)
(2646.26 -0.308025 0.00106097)
(2646.26 -0.310326 0.00106117)
(2646.26 -0.312662 0.00106138)
(2646.26 -0.315034 0.00106159)
(2646.26 -0.317441 0.0010618)
(2646.26 -0.319886 0.00106201)
(2646.26 -0.322369 0.00106222)
(2646.26 -0.32489 0.00106244)
(2646.26 -0.327452 0.00106267)
(2646.26 -0.330054 0.00106289)
(2646.26 -0.330027 -5.95465e-06)
(2646.25 -0.284786 0.00105912)
(2646.25 -0.286752 0.00105929)
(2646.25 -0.288746 0.00105947)
(2646.25 -0.290768 0.00105965)
(2646.25 -0.292818 0.00105983)
(2646.25 -0.294897 0.00106001)
(2646.25 -0.297006 0.00106019)
(2646.26 -0.299146 0.00106038)
(2646.26 -0.301316 0.00106057)
(2646.26 -0.303518 0.00106077)
(2646.26 -0.305753 0.00106096)
(2646.26 -0.308021 0.00106116)
(2646.26 -0.310322 0.00106136)
(2646.26 -0.312658 0.00106157)
(2646.26 -0.31503 0.00106178)
(2646.26 -0.317438 0.00106199)
(2646.26 -0.319883 0.0010622)
(2646.26 -0.322366 0.00106242)
(2646.26 -0.324888 0.00106264)
(2646.26 -0.32745 0.00106287)
(2646.26 -0.330052 0.00106309)
(2646.26 -0.330025 -5.77304e-06)
(2646.25 -0.284779 0.00105929)
(2646.25 -0.286746 0.00105947)
(2646.25 -0.28874 0.00105964)
(2646.25 -0.290762 0.00105982)
(2646.25 -0.292812 0.00106)
(2646.25 -0.294891 0.00106019)
(2646.25 -0.297 0.00106037)
(2646.25 -0.29914 0.00106056)
(2646.25 -0.301311 0.00106075)
(2646.25 -0.303513 0.00106095)
(2646.25 -0.305748 0.00106115)
(2646.25 -0.308016 0.00106135)
(2646.25 -0.310318 0.00106155)
(2646.25 -0.312654 0.00106176)
(2646.25 -0.315026 0.00106197)
(2646.25 -0.317434 0.00106218)
(2646.25 -0.31988 0.00106239)
(2646.25 -0.322363 0.00106261)
(2646.25 -0.324885 0.00106284)
(2646.25 -0.327447 0.00106306)
(2646.25 -0.33005 0.00106329)
(2646.26 -0.330023 -5.59154e-06)
(2646.25 -0.284772 0.00105946)
(2646.25 -0.286739 0.00105964)
(2646.25 -0.288733 0.00105982)
(2646.25 -0.290755 0.00106)
(2646.25 -0.292805 0.00106018)
(2646.25 -0.294885 0.00106036)
(2646.25 -0.296994 0.00106055)
(2646.25 -0.299134 0.00106074)
(2646.25 -0.301305 0.00106094)
(2646.25 -0.303507 0.00106113)
(2646.25 -0.305742 0.00106133)
(2646.25 -0.30801 0.00106153)
(2646.25 -0.310313 0.00106174)
(2646.25 -0.312649 0.00106195)
(2646.25 -0.315022 0.00106216)
(2646.25 -0.31743 0.00106237)
(2646.25 -0.319876 0.00106259)
(2646.25 -0.322359 0.00106281)
(2646.25 -0.324882 0.00106303)
(2646.25 -0.327444 0.00106326)
(2646.25 -0.330047 0.00106349)
(2646.26 -0.33002 -5.41015e-06)
(2646.25 -0.284764 0.00105964)
(2646.25 -0.286731 0.00105981)
(2646.25 -0.288725 0.00105999)
(2646.25 -0.290747 0.00106017)
(2646.25 -0.292798 0.00106036)
(2646.25 -0.294878 0.00106054)
(2646.25 -0.296987 0.00106073)
(2646.25 -0.299127 0.00106092)
(2646.25 -0.301298 0.00106112)
(2646.25 -0.303501 0.00106132)
(2646.25 -0.305736 0.00106152)
(2646.25 -0.308004 0.00106172)
(2646.25 -0.310307 0.00106192)
(2646.25 -0.312644 0.00106213)
(2646.25 -0.315016 0.00106235)
(2646.25 -0.317425 0.00106256)
(2646.25 -0.319871 0.00106278)
(2646.25 -0.322355 0.001063)
(2646.25 -0.324877 0.00106323)
(2646.25 -0.32744 0.00106346)
(2646.25 -0.330043 0.00106369)
(2646.25 -0.330016 -5.22887e-06)
(2646.25 -0.284756 0.00105981)
(2646.25 -0.286723 0.00105999)
(2646.25 -0.288717 0.00106017)
(2646.25 -0.290739 0.00106035)
(2646.25 -0.29279 0.00106053)
(2646.25 -0.29487 0.00106072)
(2646.25 -0.29698 0.00106091)
(2646.25 -0.29912 0.0010611)
(2646.25 -0.301291 0.0010613)
(2646.25 -0.303494 0.0010615)
(2646.25 -0.305729 0.0010617)
(2646.25 -0.307998 0.0010619)
(2646.25 -0.3103 0.00106211)
(2646.25 -0.312638 0.00106232)
(2646.25 -0.31501 0.00106254)
(2646.25 -0.317419 0.00106275)
(2646.25 -0.319865 0.00106298)
(2646.25 -0.322349 0.0010632)
(2646.25 -0.324872 0.00106343)
(2646.25 -0.327435 0.00106366)
(2646.25 -0.330038 0.00106389)
(2646.25 -0.330012 -5.04769e-06)
(2646.25 -0.284747 0.00105998)
(2646.25 -0.286714 0.00106016)
(2646.25 -0.288708 0.00106034)
(2646.25 -0.290731 0.00106052)
(2646.25 -0.292782 0.00106071)
(2646.25 -0.294862 0.0010609)
(2646.25 -0.296972 0.00106109)
(2646.25 -0.299112 0.00106128)
(2646.25 -0.301283 0.00106148)
(2646.25 -0.303486 0.00106168)
(2646.25 -0.305722 0.00106188)
(2646.25 -0.307991 0.00106209)
(2646.25 -0.310293 0.0010623)
(2646.25 -0.312631 0.00106251)
(2646.25 -0.315003 0.00106273)
(2646.25 -0.317413 0.00106295)
(2646.25 -0.319859 0.00106317)
(2646.25 -0.322343 0.00106339)
(2646.25 -0.324866 0.00106362)
(2646.25 -0.327429 0.00106386)
(2646.25 -0.330033 0.00106409)
(2646.25 -0.330007 -4.86662e-06)
(2646.25 -0.284737 0.00106015)
(2646.25 -0.286704 0.00106033)
(2646.25 -0.288699 0.00106051)
(2646.25 -0.290721 0.0010607)
(2646.25 -0.292773 0.00106089)
(2646.25 -0.294853 0.00106108)
(2646.25 -0.296963 0.00106127)
(2646.25 -0.299103 0.00106147)
(2646.25 -0.301275 0.00106166)
(2646.25 -0.303478 0.00106187)
(2646.25 -0.305714 0.00106207)
(2646.25 -0.307983 0.00106228)
(2646.25 -0.310286 0.00106249)
(2646.25 -0.312623 0.0010627)
(2646.25 -0.314996 0.00106292)
(2646.25 -0.317405 0.00106314)
(2646.25 -0.319852 0.00106336)
(2646.25 -0.322336 0.00106359)
(2646.25 -0.32486 0.00106382)
(2646.25 -0.327423 0.00106405)
(2646.25 -0.330027 0.00106429)
(2646.25 -0.330001 -4.68566e-06)
(2646.25 -0.284727 0.00106032)
(2646.25 -0.286694 0.00106051)
(2646.25 -0.288689 0.00106069)
(2646.25 -0.290712 0.00106088)
(2646.25 -0.292763 0.00106106)
(2646.25 -0.294843 0.00106126)
(2646.25 -0.296954 0.00106145)
(2646.25 -0.299094 0.00106165)
(2646.25 -0.301266 0.00106185)
(2646.25 -0.303469 0.00106205)
(2646.25 -0.305705 0.00106225)
(2646.25 -0.307974 0.00106246)
(2646.25 -0.310277 0.00106268)
(2646.25 -0.312615 0.00106289)
(2646.25 -0.314988 0.00106311)
(2646.25 -0.317398 0.00106333)
(2646.25 -0.319844 0.00106356)
(2646.25 -0.322329 0.00106378)
(2646.25 -0.324853 0.00106402)
(2646.25 -0.327416 0.00106425)
(2646.25 -0.33002 0.00106449)
(2646.25 -0.329994 -4.50481e-06)
(2646.25 -0.284716 0.0010605)
(2646.25 -0.286684 0.00106068)
(2646.25 -0.288679 0.00106086)
(2646.25 -0.290702 0.00106105)
(2646.25 -0.292753 0.00106124)
(2646.25 -0.294833 0.00106143)
(2646.25 -0.296944 0.00106163)
(2646.25 -0.299084 0.00106183)
(2646.25 -0.301256 0.00106203)
(2646.25 -0.30346 0.00106223)
(2646.25 -0.305696 0.00106244)
(2646.25 -0.307965 0.00106265)
(2646.25 -0.310268 0.00106286)
(2646.25 -0.312606 0.00106308)
(2646.25 -0.31498 0.0010633)
(2646.25 -0.317389 0.00106352)
(2646.25 -0.319836 0.00106375)
(2646.25 -0.322321 0.00106398)
(2646.25 -0.324845 0.00106421)
(2646.25 -0.327408 0.00106445)
(2646.25 -0.330013 0.00106469)
(2646.25 -0.329987 -4.32407e-06)
(2646.24 -0.284705 0.00106067)
(2646.24 -0.286673 0.00106085)
(2646.24 -0.288668 0.00106104)
(2646.24 -0.290691 0.00106123)
(2646.24 -0.292742 0.00106142)
(2646.24 -0.294823 0.00106161)
(2646.24 -0.296933 0.00106181)
(2646.24 -0.299074 0.00106201)
(2646.24 -0.301246 0.00106221)
(2646.24 -0.30345 0.00106242)
(2646.24 -0.305686 0.00106262)
(2646.24 -0.307955 0.00106284)
(2646.24 -0.310259 0.00106305)
(2646.24 -0.312597 0.00106327)
(2646.24 -0.31497 0.00106349)
(2646.24 -0.31738 0.00106371)
(2646.24 -0.319827 0.00106394)
(2646.24 -0.322312 0.00106417)
(2646.24 -0.324836 0.00106441)
(2646.24 -0.3274 0.00106465)
(2646.24 -0.330005 0.00106489)
(2646.25 -0.329979 -4.14343e-06)
(2646.24 -0.284229 0.00106124)
(2646.24 -0.286194 0.00106142)
(2646.24 -0.288186 0.00106161)
(2646.24 -0.290206 0.00106181)
(2646.24 -0.292254 0.001062)
(2646.24 -0.294332 0.0010622)
(2646.24 -0.296439 0.0010624)
(2646.24 -0.298577 0.0010626)
(2646.24 -0.300746 0.00106281)
(2646.24 -0.302946 0.00106302)
(2646.24 -0.305179 0.00106323)
(2646.24 -0.307445 0.00106345)
(2646.24 -0.309745 0.00106367)
(2646.24 -0.31208 0.00106389)
(2646.24 -0.31445 0.00106412)
(2646.24 -0.316857 0.00106435)
(2646.24 -0.3193 0.00106458)
(2646.24 -0.321782 0.00106482)
(2646.24 -0.324302 0.00106506)
(2646.24 -0.326862 0.0010653)
(2646.24 -0.329463 0.00106555)
(2646.24 -0.329445 -6.49023e-06)
)
;

boundaryField
{
    inlet
    {
        type            calculated;
        value           uniform (0 0 0);
    }
    outlet2
    {
        type            calculated;
        value           uniform (0 0 0);
    }
    outlet1
    {
        type            calculated;
        value           uniform (0 0 0);
    }
    wall
    {
        type            calculated;
        value           uniform (0 0 0);
    }
    symmetryBottom
    {
        type            symmetry;
    }
    symmetryZ0
    {
        type            symmetry;
    }
    symmetryZ05
    {
        type            symmetry;
    }
}


// ************************************************************************* //
