/*--------------------------------*- C++ -*----------------------------------*\
| =========                 |                                                 |
| \\      /  F ield         | OpenFOAM: The Open Source CFD Toolbox           |
|  \\    /   O peration     | Version:  2412                                  |
|   \\  /    A nd           | Website:  www.openfoam.com                      |
|    \\/     M anipulation  |                                                 |
\*---------------------------------------------------------------------------*/
FoamFile
{
    version     2.0;
    format      ascii;
    arch        "LSB;label=32;scalar=64";
    class       volScalarField;
    location    "7.3e-06";
    object      E_dof0;
}
// * * * * * * * * * * * * * * * * * * * * * * * * * * * * * * * * * * * * * //

dimensions      [0 0 0 0 0 0 0];

internalField   nonuniform List<scalar> 
84
(
95.8421
57.6708
62.2512
61.8934
61.92
61.9244
61.93
62.4581
102.419
61.7361
66.6825
66.3693
66.467
66.5433
66.6234
67.1815
101.066
61.957
66.1125
65.9006
65.9813
66.0501
66.1218
66.6768
100.582
60.9589
65.7985
65.4777
65.5615
65.6239
66.1758
100.429
60.4806
65.3272
64.9986
65.0745
65.1287
65.6776
99.7306
60.0483
64.8551
64.5214
64.5893
64.6354
65.1811
99.0452
59.6298
64.3932
64.0552
64.1153
64.1534
64.6962
98.0383
59.5823
63.8924
63.6083
63.656
63.687
64.2268
97.4901
58.8793
63.5472
63.2017
63.248
63.784
96.964
58.3457
62.9933
62.6413
62.6789
63.2111
96.1405
57.9596
62.5404
62.1858
62.2154
62.7448
94.8744
57.7272
62.0757
61.7416
61.7621
61.7626
62.2901
)
;

boundaryField
{
    inlet
    {
        type            calculated;
        value           nonuniform List<scalar> 0();
    }
    outlet2
    {
        type            calculated;
        value           uniform 99.4306;
    }
    outlet1
    {
        type            calculated;
        value           uniform 99.4306;
    }
    wall
    {
        type            calculated;
        value           uniform 99.4306;
    }
    symmetryBottom
    {
        type            symmetry;
    }
    symmetryZ0
    {
        type            symmetry;
    }
    symmetryZ05
    {
        type            symmetry;
    }
    procBoundary0to1
    {
        type            processor;
        value           uniform 99.4306;
    }
}


// ************************************************************************* //
