/*--------------------------------*- C++ -*----------------------------------*\
| =========                 |                                                 |
| \\      /  F ield         | OpenFOAM: The Open Source CFD Toolbox           |
|  \\    /   O peration     | Version:  2412                                  |
|   \\  /    A nd           | Website:  www.openfoam.com                      |
|    \\/     M anipulation  |                                                 |
\*---------------------------------------------------------------------------*/
FoamFile
{
    version     2.0;
    format      ascii;
    arch        "LSB;label=32;scalar=64";
    class       volVectorField;
    location    "7.3e-06";
    object      rhoU;
}
// * * * * * * * * * * * * * * * * * * * * * * * * * * * * * * * * * * * * * //

dimensions      [0 0 0 0 0 0 0];

internalField   nonuniform List<vector> 
84
(
(0.0714685 0.000201148 2.06132e-19)
(0.0431441 0.000124131 -1.95044e-19)
(0.0465237 0.000135453 -3.10499e-19)
(0.0462613 0.000136648 2.10152e-19)
(0.0462809 0.000138691 -3.55637e-20)
(0.0462842 0.000140747 2.78168e-20)
(0.0462885 0.000142867 2.97179e-19)
(0.0466806 0.000143798 2.92043e-20)
(0.0763354 -0.000221887 2.06938e-19)
(0.04616 -0.00013962 -1.93762e-19)
(0.0498085 -0.000151429 -4.13485e-19)
(0.0495795 -0.000153171 6.09441e-20)
(0.0496517 -0.000155723 -7.69232e-19)
(0.0497084 -0.000158319 2.09579e-19)
(0.0497678 -0.000161004 6.34195e-19)
(0.0501821 -0.000161984 1.11737e-19)
(0.0753343 -0.000195591 -8.04668e-19)
(0.0463202 -0.000161941 1.69661e-19)
(0.0493861 -0.000146986 2.18981e-19)
(0.0492312 -0.000152402 -3.39091e-20)
(0.049291 -0.000154612 -1.24491e-20)
(0.0493421 -0.000157191 2.98161e-19)
(0.0493953 -0.000159839 -2.5645e-19)
(0.0498073 -0.000160814 -2.82124e-19)
(0.0749755 -0.000203592 -7.63709e-19)
(0.0455819 -0.000140943 3.59326e-19)
(0.049152 -0.000151746 -4.75625e-20)
(0.0489172 -0.000153505 -6.86094e-19)
(0.0489792 -0.000156073 7.01181e-19)
(0.0490255 -0.000158683 1.04831e-19)
(0.0494352 -0.000159653 -2.58457e-19)
(0.0748599 -0.000221486 -4.53113e-19)
(0.0452267 -0.000138503 -1.11727e-19)
(0.0488019 -0.000150841 1.61332e-20)
(0.0485613 -0.00015248 4.86622e-21)
(0.0486174 -0.000155019 -2.32303e-19)
(0.0486577 -0.000157594 2.13106e-19)
(0.0490651 -0.00015856 4.38415e-19)
(0.0743395 -0.000213541 -2.98647e-19)
(0.0449036 -0.000133235 3.75008e-19)
(0.0484493 -0.000145239 -4.98036e-20)
(0.0482049 -0.000146852 4.45128e-19)
(0.048255 -0.000149342 -4.18873e-19)
(0.0482892 -0.00015187 3.5003e-19)
(0.0486944 -0.000152802 -7.34435e-19)
(0.0738134 -0.000170513 -1.23702e-22)
(0.0445821 -0.000106744 3.39631e-19)
(0.0480947 -0.000116049 -4.70454e-20)
(0.047847 -0.000117362 2.49885e-21)
(0.0478911 -0.000119331 3.64615e-19)
(0.0479192 -0.000121332 3.45932e-20)
(0.048322 -0.000122081 3.59789e-19)
(0.0730502 -0.000123555 8.60065e-21)
(0.0445339 -0.000109011 6.77243e-21)
(0.0477111 -9.59089e-05 -2.45439e-21)
(0.0475027 -9.99734e-05 -6.30955e-21)
(0.0475375 -0.000101421 -1.18248e-21)
(0.0475601 -0.000103155 3.12602e-21)
(0.0479606 -0.000103788 -2.81861e-19)
(0.0725695 -0.00011812 1.09354e-18)
(0.0439589 -8.14347e-05 -1.24911e-19)
(0.0473958 -8.78162e-05 -7.5577e-19)
(0.0471414 -8.88042e-05 -2.09994e-19)
(0.0471737 -9.02776e-05 4.24362e-19)
(0.0475712 -9.084e-05 -6.42433e-20)
(0.0723462 -0.00012472 -3.81482e-19)
(0.0436704 -7.74854e-05 4.45305e-20)
(0.047103 -8.44516e-05 -3.47613e-19)
(0.0468452 -8.52783e-05 3.9415e-19)
(0.0468734 -8.66194e-05 6.49241e-19)
(0.0472688 -8.71702e-05 -8.41829e-20)
(0.0716958 -0.000129676 -4.68798e-19)
(0.0433604 -8.97382e-05 5.96707e-20)
(0.046741 -9.56836e-05 -3.60584e-21)
(0.046481 -9.68137e-05 6.7278e-19)
(0.0465029 -9.83523e-05 6.69451e-19)
(0.046896 -9.89741e-05 1.69649e-20)
(0.0707437 -2.2345e-05 -4.29356e-20)
(0.0431831 -0.000125543 3.66666e-21)
(0.0463903 -0.000110064 -2.20573e-22)
(0.0461455 -0.000113551 4.1319e-19)
(0.0461605 -0.000115153 -5.57674e-20)
(0.0461609 -0.000116949 4.66059e-21)
(0.0465526 -0.000117695 -3.38332e-19)
)
;

boundaryField
{
    inlet
    {
        type            calculated;
        value           nonuniform List<vector> 0();
    }
    outlet2
    {
        type            calculated;
        value           uniform (0 0 0);
    }
    outlet1
    {
        type            calculated;
        value           uniform (0 0 0);
    }
    wall
    {
        type            calculated;
        value           uniform (0 0 0);
    }
    symmetryBottom
    {
        type            symmetry;
    }
    symmetryZ0
    {
        type            symmetry;
    }
    symmetryZ05
    {
        type            symmetry;
    }
    procBoundary0to1
    {
        type            processor;
        value           uniform (0 0 0);
    }
}


// ************************************************************************* //
