/*--------------------------------*- C++ -*----------------------------------*\
| =========                 |                                                 |
| \\      /  F ield         | OpenFOAM: The Open Source CFD Toolbox           |
|  \\    /   O peration     | Version:  2412                                  |
|   \\  /    A nd           | Website:  www.openfoam.com                      |
|    \\/     M anipulation  |                                                 |
\*---------------------------------------------------------------------------*/
FoamFile
{
    version     2.0;
    format      ascii;
    arch        "LSB;label=32;scalar=64";
    class       volScalarField;
    location    "6e-07";
    object      rho_dof0;
}
// * * * * * * * * * * * * * * * * * * * * * * * * * * * * * * * * * * * * * //

dimensions      [0 0 0 0 0 0 0];

internalField   nonuniform List<scalar> 
84
(
2.81085e-05
2.54934e-05
2.55454e-05
2.81086e-05
2.5494e-05
2.55459e-05
2.81086e-05
2.5494e-05
2.55459e-05
2.81086e-05
2.5494e-05
2.55459e-05
2.81086e-05
2.5494e-05
2.55459e-05
2.81086e-05
2.5494e-05
2.55459e-05
2.81086e-05
2.5494e-05
2.55459e-05
2.81086e-05
2.5494e-05
2.55459e-05
2.81086e-05
2.5494e-05
2.55459e-05
2.81086e-05
2.5494e-05
2.55459e-05
2.81086e-05
2.5494e-05
2.55459e-05
2.81086e-05
2.54938e-05
2.55457e-05
2.7055e-05
2.70424e-05
2.70573e-05
2.71991e-05
2.71873e-05
2.72023e-05
2.71843e-05
2.71725e-05
2.71874e-05
2.71695e-05
2.71576e-05
2.71594e-05
2.70385e-05
2.71548e-05
2.71428e-05
2.71443e-05
2.71594e-05
2.71401e-05
2.7128e-05
2.71293e-05
2.71444e-05
2.71253e-05
2.71132e-05
2.71143e-05
2.71294e-05
2.71107e-05
2.70984e-05
2.70993e-05
2.71144e-05
2.70959e-05
2.70836e-05
2.70843e-05
2.70849e-05
2.7039e-05
2.70813e-05
2.70689e-05
2.70694e-05
2.70698e-05
2.70851e-05
2.70666e-05
2.70541e-05
2.70544e-05
2.70546e-05
2.70701e-05
2.70519e-05
2.70393e-05
2.70394e-05
2.70544e-05
)
;

boundaryField
{
    inlet
    {
        type            calculated;
        value           uniform 2.81085e-05;
    }
    outlet2
    {
        type            calculated;
        value           uniform 2.81085e-05;
    }
    outlet1
    {
        type            calculated;
        value           nonuniform List<scalar> 0();
    }
    wall
    {
        type            calculated;
        value           uniform 2.81085e-05;
    }
    symmetryBottom
    {
        type            symmetry;
    }
    symmetryZ0
    {
        type            symmetry;
    }
    symmetryZ05
    {
        type            symmetry;
    }
    procBoundary1to0
    {
        type            processor;
        value           uniform 2.81085e-05;
    }
}


// ************************************************************************* //
