/*--------------------------------*- C++ -*----------------------------------*\
| =========                 |                                                 |
| \\      /  F ield         | OpenFOAM: The Open Source CFD Toolbox           |
|  \\    /   O peration     | Version:  2412                                  |
|   \\  /    A nd           | Website:  www.openfoam.com                      |
|    \\/     M anipulation  |                                                 |
\*---------------------------------------------------------------------------*/
FoamFile
{
    version     2.0;
    format      ascii;
    arch        "LSB;label=32;scalar=64";
    class       volVectorField;
    location    "6e-07";
    object      rhoU;
}
// * * * * * * * * * * * * * * * * * * * * * * * * * * * * * * * * * * * * * //

dimensions      [0 0 0 0 0 0 0];

internalField   nonuniform List<vector> 
84
(
(0.0741049 -4.37279e-09 0)
(0.0671701 -5.78063e-08 0)
(0.0673087 -5.60932e-08 -2.18576e-20)
(0.0741052 -1.64997e-05 0)
(0.0671716 -1.5521e-05 0)
(0.0673101 -1.55385e-05 -1.87351e-20)
(0.0741051 -1.64924e-05 0)
(0.0671715 -1.55149e-05 0)
(0.06731 -1.55323e-05 3.27864e-20)
(0.0741051 -1.64924e-05 0)
(0.0671715 -1.55149e-05 0)
(0.06731 -1.55323e-05 -4.37157e-20)
(0.0741051 -1.64924e-05 0)
(0.0671715 -1.55149e-05 0)
(0.06731 -1.55323e-05 -7.49407e-20)
(0.0741051 -1.64924e-05 0)
(0.0671715 -1.55149e-05 0)
(0.06731 -1.55323e-05 4.05927e-20)
(0.0741051 -1.64924e-05 0)
(0.0671715 -1.55149e-05 0)
(0.06731 -1.55323e-05 -5.30833e-20)
(0.0741051 -1.64924e-05 0)
(0.0671715 -1.55149e-05 0)
(0.06731 -1.55323e-05 -6.24506e-20)
(0.0741051 -1.64924e-05 0)
(0.0671715 -1.55149e-05 0)
(0.06731 -1.55323e-05 2.18576e-20)
(0.0741051 -1.64924e-05 0)
(0.0671715 -1.55149e-05 0)
(0.06731 -1.55323e-05 -5.15223e-20)
(0.0741051 -1.64924e-05 0)
(0.0671715 -1.55149e-05 0)
(0.06731 -1.55323e-05 -1.3583e-19)
(0.0741051 -1.64945e-05 0)
(0.067171 -1.54633e-05 0)
(0.0673095 -1.54824e-05 0)
(0.0713082 1.67297e-05 1.67502e-22)
(0.0712746 1.68234e-05 1.55643e-20)
(0.0713142 1.68304e-05 1.70219e-21)
(0.0716933 -1.66506e-05 1.52329e-22)
(0.0716619 -1.68794e-05 1.81878e-20)
(0.0717016 -1.68845e-05 -2.722e-23)
(0.0716542 -1.66443e-05 -2.5392e-22)
(0.0716225 -1.6873e-05 -6.502e-21)
(0.0716622 -1.68771e-05 -3.66592e-20)
(0.071615 -1.66381e-05 3.57131e-22)
(0.0715832 -1.68666e-05 -2.83888e-22)
(0.0715878 -1.71071e-05 2.14569e-24)
(0.0712675 7.14718e-08 2.6514e-20)
(0.0715759 -1.66315e-05 -1.21884e-20)
(0.0715439 -1.68598e-05 -1.82076e-22)
(0.071548 -1.71002e-05 -2.84504e-22)
(0.071588 -1.71055e-05 2.39055e-20)
(0.0715368 -1.57585e-05 -3.25057e-22)
(0.0715045 -1.5982e-05 -1.94605e-20)
(0.071508 -1.621e-05 -3.67518e-22)
(0.0715481 -1.62151e-05 1.59294e-20)
(0.0714975 -1.26783e-05 3.0293e-22)
(0.071465 -1.28838e-05 -8.10289e-24)
(0.071468 -1.30675e-05 -1.43921e-22)
(0.071508 -1.30718e-05 -1.44098e-22)
(0.0714585 -1.0658e-05 6.27546e-22)
(0.0714257 -1.08518e-05 -1.80356e-20)
(0.0714281 -1.10064e-05 1.74069e-20)
(0.0714681 -1.10094e-05 1.12031e-22)
(0.0714194 -9.68388e-06 -1.74146e-22)
(0.0713864 -9.87175e-06 -2.70871e-20)
(0.0713883 -1.00122e-05 -2.60591e-20)
(0.07139 -1.0157e-05 2.96401e-20)
(0.0712688 8.10311e-08 1.94871e-19)
(0.0713808 -9.75298e-06 4.95816e-22)
(0.0713477 -9.94068e-06 -2.98274e-20)
(0.071349 -1.00816e-05 1.73541e-20)
(0.0713501 -1.02268e-05 4.65108e-20)
(0.0713906 -1.02351e-05 2.83339e-20)
(0.0713419 -1.09394e-05 1.19434e-21)
(0.0713085 -1.11338e-05 -3.23189e-24)
(0.0713093 -1.12919e-05 3.56142e-23)
(0.0713099 -1.14553e-05 8.76568e-24)
(0.071351 -1.15075e-05 -2.55649e-20)
(0.071303 -1.31676e-05 2.05456e-23)
(0.0712694 -1.33741e-05 2.72362e-20)
(0.0712695 -1.35639e-05 -2.11855e-22)
(0.0713095 -1.35684e-05 -4.50815e-20)
)
;

boundaryField
{
    inlet
    {
        type            calculated;
        value           uniform (0 0 0);
    }
    outlet2
    {
        type            calculated;
        value           uniform (0 0 0);
    }
    outlet1
    {
        type            calculated;
        value           nonuniform List<vector> 0();
    }
    wall
    {
        type            calculated;
        value           uniform (0 0 0);
    }
    symmetryBottom
    {
        type            symmetry;
    }
    symmetryZ0
    {
        type            symmetry;
    }
    symmetryZ05
    {
        type            symmetry;
    }
    procBoundary1to0
    {
        type            processor;
        value           uniform (0 0 0);
    }
}


// ************************************************************************* //
