/*--------------------------------*- C++ -*----------------------------------*\
| =========                 |                                                 |
| \\      /  F ield         | OpenFOAM: The Open Source CFD Toolbox           |
|  \\    /   O peration     | Version:  2412                                  |
|   \\  /    A nd           | Website:  www.openfoam.com                      |
|    \\/     M anipulation  |                                                 |
\*---------------------------------------------------------------------------*/
FoamFile
{
    version     2.0;
    format      ascii;
    arch        "LSB;label=32;scalar=64";
    class       volVectorField;
    location    "6e-07";
    object      U;
}
// * * * * * * * * * * * * * * * * * * * * * * * * * * * * * * * * * * * * * //

dimensions      [0 0 0 0 0 0 0];

internalField   nonuniform List<vector> 
84
(
(2636.39 -0.000155568 0)
(2634.8 -0.0022675 0)
(2634.87 -0.00219583 -8.55637e-16)
(2636.39 -0.586999 0)
(2634.8 -0.608811 0)
(2634.87 -0.608257 -7.33389e-16)
(2636.39 -0.586738 0)
(2634.8 -0.60857 0)
(2634.87 -0.608016 1.28343e-15)
(2636.39 -0.586738 0)
(2634.8 -0.60857 0)
(2634.87 -0.608016 -1.71126e-15)
(2636.39 -0.586738 0)
(2634.8 -0.60857 0)
(2634.87 -0.608016 -2.93357e-15)
(2636.39 -0.586738 0)
(2634.8 -0.60857 0)
(2634.87 -0.608016 1.58901e-15)
(2636.39 -0.586738 0)
(2634.8 -0.60857 0)
(2634.87 -0.608016 -2.07796e-15)
(2636.39 -0.586738 0)
(2634.8 -0.60857 0)
(2634.87 -0.608016 -2.44464e-15)
(2636.39 -0.586738 0)
(2634.8 -0.60857 0)
(2634.87 -0.608016 8.5562e-16)
(2636.39 -0.586738 0)
(2634.8 -0.60857 0)
(2634.87 -0.608016 -2.01685e-15)
(2636.39 -0.586738 0)
(2634.8 -0.60857 0)
(2634.87 -0.608015 -5.3171e-15)
(2636.39 -0.586814 0)
(2634.8 -0.606551 0)
(2634.87 -0.606067 0)
(2635.68 0.618358 6.19116e-18)
(2635.66 0.62211 5.75552e-16)
(2635.67 0.622029 6.29104e-17)
(2635.87 -0.612174 5.60053e-18)
(2635.86 -0.620855 6.68982e-16)
(2635.87 -0.620702 -1.00065e-18)
(2635.87 -0.612277 -9.34067e-18)
(2635.85 -0.620958 -2.39286e-16)
(2635.86 -0.62077 -1.34839e-15)
(2635.86 -0.612379 1.31445e-17)
(2635.84 -0.621062 -1.04533e-17)
(2635.84 -0.62988 7.90037e-20)
(2635.77 0.00264333 9.80601e-16)
(2635.85 -0.612469 -4.48849e-16)
(2635.83 -0.621153 -6.70809e-18)
(2635.83 -0.629974 -1.04812e-17)
(2635.84 -0.629818 8.80191e-16)
(2635.84 -0.580635 -1.1977e-17)
(2635.82 -0.589132 -7.17358e-16)
(2635.82 -0.597508 -1.35469e-17)
(2635.83 -0.597364 5.8684e-16)
(2635.82 -0.467398 1.11678e-17)
(2635.8 -0.475188 -2.98855e-19)
(2635.8 -0.481941 -5.30793e-18)
(2635.81 -0.48183 -5.31152e-18)
(2635.81 -0.393128 2.31476e-17)
(2635.79 -0.400458 -6.6556e-16)
(2635.79 -0.406151 6.42338e-16)
(2635.8 -0.406036 4.13179e-18)
(2635.8 -0.357393 -6.427e-18)
(2635.78 -0.364492 -1.00013e-15)
(2635.78 -0.369669 -9.6215e-16)
(2635.78 -0.375004 1.09434e-15)
(2635.77 0.00299682 7.20701e-15)
(2635.8 -0.360137 1.83084e-17)
(2635.78 -0.367236 -1.10191e-15)
(2635.78 -0.372435 6.41098e-16)
(2635.78 -0.377793 1.71818e-15)
(2635.79 -0.377885 1.04611e-15)
(2635.79 -0.404165 4.41259e-17)
(2635.78 -0.41154 -1.1946e-19)
(2635.78 -0.417376 1.31639e-18)
(2635.78 -0.423415 3.24e-19)
(2635.79 -0.425098 -9.44397e-16)
(2635.79 -0.486754 7.59489e-19)
(2635.77 -0.494616 1.00728e-15)
(2635.77 -0.501636 -7.83508e-18)
(2635.78 -0.501524 -1.66633e-15)
)
;

boundaryField
{
    inlet
    {
        type            calculated;
        value           uniform (0 0 0);
    }
    outlet2
    {
        type            calculated;
        value           uniform (0 0 0);
    }
    outlet1
    {
        type            calculated;
        value           nonuniform List<vector> 0();
    }
    wall
    {
        type            calculated;
        value           uniform (0 0 0);
    }
    symmetryBottom
    {
        type            symmetry;
    }
    symmetryZ0
    {
        type            symmetry;
    }
    symmetryZ05
    {
        type            symmetry;
    }
    procBoundary1to0
    {
        type            processor;
        value           uniform (0 0 0);
    }
}


// ************************************************************************* //
