/*--------------------------------*- C++ -*----------------------------------*\
| =========                 |                                                 |
| \\      /  F ield         | OpenFOAM: The Open Source CFD Toolbox           |
|  \\    /   O peration     | Version:  2412                                  |
|   \\  /    A nd           | Website:  www.openfoam.com                      |
|    \\/     M anipulation  |                                                 |
\*---------------------------------------------------------------------------*/
FoamFile
{
    version     2.0;
    format      ascii;
    arch        "LSB;label=32;scalar=64";
    class       volScalarField;
    location    "6.2e-06";
    object      E;
}
// * * * * * * * * * * * * * * * * * * * * * * * * * * * * * * * * * * * * * //

dimensions      [0 0 0 0 0 0 0];

internalField   nonuniform List<scalar> 
84
(
99.4387
21.5044
39.1308
99.471
21.5295
39.155
99.4628
21.5263
39.1505
99.4628
21.5263
39.1505
99.4628
21.5263
39.1505
99.4628
21.5263
39.1505
99.4628
21.5263
39.1505
99.4628
21.5263
39.1505
99.4628
21.5263
39.1505
99.4628
21.5263
39.1505
99.4628
21.5263
39.1505
99.463
21.5205
39.1476
69.8961
66.1962
66.8833
74.1003
69.9479
70.69
73.6573
69.5523
70.284
73.2163
69.1589
69.5022
66.042
72.7772
68.7671
69.1006
69.5235
72.3402
68.3771
68.7009
69.1221
71.9136
67.9958
68.3102
68.7298
71.498
67.6241
67.9296
68.3448
71.1147
67.2773
67.575
67.5794
66.2307
70.586
66.8148
67.0998
67.0974
67.521
70.178
66.4492
66.7253
66.7191
67.2679
69.7707
66.0845
66.3521
66.7621
)
;

boundaryField
{
    inlet
    {
        type            calculated;
        value           uniform 0;
    }
    outlet2
    {
        type            calculated;
        value           uniform 0;
    }
    outlet1
    {
        type            calculated;
        value           nonuniform List<scalar> 0();
    }
    wall
    {
        type            calculated;
        value           uniform 0;
    }
    symmetryBottom
    {
        type            symmetry;
    }
    symmetryZ0
    {
        type            symmetry;
    }
    symmetryZ05
    {
        type            symmetry;
    }
    procBoundary1to0
    {
        type            processor;
        value           uniform 0;
    }
}


// ************************************************************************* //
