/*--------------------------------*- C++ -*----------------------------------*\
| =========                 |                                                 |
| \\      /  F ield         | OpenFOAM: The Open Source CFD Toolbox           |
|  \\    /   O peration     | Version:  2412                                  |
|   \\  /    A nd           | Website:  www.openfoam.com                      |
|    \\/     M anipulation  |                                                 |
\*---------------------------------------------------------------------------*/
FoamFile
{
    version     2.0;
    format      ascii;
    arch        "LSB;label=32;scalar=64";
    class       volScalarField;
    location    "6.2e-06";
    object      rho;
}
// * * * * * * * * * * * * * * * * * * * * * * * * * * * * * * * * * * * * * //

dimensions      [0 0 0 0 0 0 0];

internalField   nonuniform List<scalar> 
84
(
2.81108e-05
6.27908e-06
1.11648e-05
2.81199e-05
6.28631e-06
1.11717e-05
2.81176e-05
6.28539e-06
1.11704e-05
2.81176e-05
6.28539e-06
1.11704e-05
2.81176e-05
6.28539e-06
1.11704e-05
2.81176e-05
6.28539e-06
1.11704e-05
2.81176e-05
6.28539e-06
1.11704e-05
2.81176e-05
6.28539e-06
1.11704e-05
2.81176e-05
6.28539e-06
1.11704e-05
2.81176e-05
6.28539e-06
1.11704e-05
2.81176e-05
6.28538e-06
1.11704e-05
2.81177e-05
6.28374e-06
1.11696e-05
1.98433e-05
1.88149e-05
1.9006e-05
2.10096e-05
1.98571e-05
2.00632e-05
2.08856e-05
1.97461e-05
1.99493e-05
2.07621e-05
1.96357e-05
1.97301e-05
1.87603e-05
2.0639e-05
1.95257e-05
1.96175e-05
1.97361e-05
2.0516e-05
1.94158e-05
1.95048e-05
1.9623e-05
2.03933e-05
1.93063e-05
1.93926e-05
1.95103e-05
2.02729e-05
1.91987e-05
1.92824e-05
1.93989e-05
2.01462e-05
1.90856e-05
1.91665e-05
1.91675e-05
1.88171e-05
2.00378e-05
1.89885e-05
1.90671e-05
1.90667e-05
1.9186e-05
1.99144e-05
1.88782e-05
1.89541e-05
1.89525e-05
1.91063e-05
1.97981e-05
1.8774e-05
1.88474e-05
1.89625e-05
)
;

boundaryField
{
    inlet
    {
        type            calculated;
        value           uniform 0;
    }
    outlet2
    {
        type            calculated;
        value           uniform 0;
    }
    outlet1
    {
        type            calculated;
        value           nonuniform List<scalar> 0();
    }
    wall
    {
        type            calculated;
        value           uniform 0;
    }
    symmetryBottom
    {
        type            symmetry;
    }
    symmetryZ0
    {
        type            symmetry;
    }
    symmetryZ05
    {
        type            symmetry;
    }
    procBoundary1to0
    {
        type            processor;
        value           uniform 0;
    }
}


// ************************************************************************* //
