/*--------------------------------*- C++ -*----------------------------------*\
| =========                 |                                                 |
| \\      /  F ield         | OpenFOAM: The Open Source CFD Toolbox           |
|  \\    /   O peration     | Version:  2412                                  |
|   \\  /    A nd           | Website:  www.openfoam.com                      |
|    \\/     M anipulation  |                                                 |
\*---------------------------------------------------------------------------*/
FoamFile
{
    version     2.0;
    format      ascii;
    arch        "LSB;label=32;scalar=64";
    class       volVectorField;
    location    "6.2e-06";
    object      rhoU_dof0;
}
// * * * * * * * * * * * * * * * * * * * * * * * * * * * * * * * * * * * * * //

dimensions      [0 0 0 0 0 0 0];

internalField   nonuniform List<vector> 
84
(
(0.0741109 -5.9736e-07 0)
(0.0162855 -6.56432e-07 0)
(0.0292962 -5.48027e-07 -1.21014e-19)
(0.0741349 -0.00013625 0)
(0.0163044 -4.50881e-05 0)
(0.0293144 -6.8481e-05 -1.17884e-19)
(0.0741289 -0.00013567 0)
(0.016302 -4.48701e-05 0)
(0.0293111 -6.81674e-05 1.6003e-19)
(0.0741289 -0.00013567 0)
(0.016302 -4.487e-05 0)
(0.0293111 -6.81674e-05 -2.13258e-19)
(0.0741289 -0.00013567 0)
(0.016302 -4.487e-05 0)
(0.0293111 -6.81674e-05 -3.23237e-19)
(0.0741289 -0.00013567 0)
(0.016302 -4.487e-05 0)
(0.0293111 -6.81674e-05 2.09215e-19)
(0.0741289 -0.00013567 0)
(0.016302 -4.487e-05 0)
(0.0293111 -6.81674e-05 -2.32772e-19)
(0.0741289 -0.00013567 0)
(0.016302 -4.487e-05 0)
(0.0293111 -6.81674e-05 -2.67036e-19)
(0.0741289 -0.00013567 0)
(0.016302 -4.487e-05 0)
(0.0293111 -6.81674e-05 1.19415e-19)
(0.0741289 -0.00013567 0)
(0.016302 -4.487e-05 0)
(0.0293111 -6.81674e-05 -2.33635e-19)
(0.0741289 -0.00013567 0)
(0.0163019 -4.48661e-05 0)
(0.029311 -6.81653e-05 -6.31726e-19)
(0.0741291 -0.000135687 0)
(0.0162977 -4.4448e-05 0)
(0.0293089 -6.79542e-05 0)
(0.0521924 0.000129884 1.4979e-20)
(0.0494586 0.000115972 1.41095e-19)
(0.0499665 0.000117648 1.46403e-20)
(0.0553063 -0.000132771 1.44237e-20)
(0.0522391 -0.000127467 1.5414e-19)
(0.0527874 -0.000128542 -4.2376e-21)
(0.0549776 -0.000132039 -2.01953e-20)
(0.0519454 -0.000126776 -7.31034e-20)
(0.052486 -0.000127694 -2.41011e-19)
(0.0546504 -0.000131285 2.61111e-20)
(0.0516532 -0.00012609 -4.19427e-21)
(0.0519057 -0.000128462 3.08454e-22)
(0.0493377 9.78332e-06 2.09259e-19)
(0.0543246 -0.000130577 -3.36797e-20)
(0.0513622 -0.000125444 1.11952e-21)
(0.0516075 -0.000127791 -2.32359e-21)
(0.0519215 -0.000128353 2.11356e-19)
(0.0539982 -0.000124838 -2.56859e-20)
(0.0510708 -0.000120355 -1.47117e-19)
(0.0513088 -0.000122602 1.083e-20)
(0.0516216 -0.000123144 1.59501e-19)
(0.0536706 -9.82378e-05 3.01153e-20)
(0.0507781 -9.65151e-05 -3.2545e-21)
(0.051009 -9.81677e-05 7.6861e-23)
(0.0513204 -9.86099e-05 -1.27948e-21)
(0.0533506 -8.19886e-05 3.67721e-20)
(0.0504922 -8.19168e-05 -1.49098e-19)
(0.0507161 -8.32283e-05 1.6723e-19)
(0.0510243 -8.3498e-05 2.42607e-21)
(0.0530135 -7.15294e-05 -1.45255e-20)
(0.0501899 -7.25128e-05 -2.08827e-19)
(0.0504064 -7.35636e-05 -2.01748e-19)
(0.0504088 -7.46474e-05 2.27445e-19)
(0.0494866 1.03045e-05 1.26991e-18)
(0.0527309 -6.93416e-05 3.16293e-20)
(0.0499405 -7.0544e-05 -2.15132e-19)
(0.0501507 -7.15022e-05 1.60556e-19)
(0.0501495 -7.25179e-05 2.80978e-19)
(0.0504654 -7.34088e-05 1.91967e-19)
(0.0524043 -7.96156e-05 7.94567e-20)
(0.0496481 -7.96792e-05 -5.50213e-21)
(0.0498512 -8.08736e-05 5.41708e-22)
(0.0498468 -8.21342e-05 -4.49096e-22)
(0.0502539 -8.92556e-05 -2.16629e-19)
(0.0520971 -9.6689e-05 1.59632e-22)
(0.0493729 -9.48553e-05 2.10272e-19)
(0.0495695 -9.64093e-05 -2.15776e-20)
(0.0498741 -9.67968e-05 -2.82955e-19)
)
;

boundaryField
{
    inlet
    {
        type            calculated;
        value           uniform (0.0741049 0 0);
    }
    outlet2
    {
        type            calculated;
        value           uniform (0.0741049 0 0);
    }
    outlet1
    {
        type            calculated;
        value           nonuniform List<vector> 0();
    }
    wall
    {
        type            calculated;
        value           uniform (0.0741049 0 0);
    }
    symmetryBottom
    {
        type            symmetry;
    }
    symmetryZ0
    {
        type            symmetry;
    }
    symmetryZ05
    {
        type            symmetry;
    }
    procBoundary1to0
    {
        type            processor;
        value           uniform (0.0741049 0 0);
    }
}


// ************************************************************************* //
