/*--------------------------------*- C++ -*----------------------------------*\
| =========                 |                                                 |
| \\      /  F ield         | OpenFOAM: The Open Source CFD Toolbox           |
|  \\    /   O peration     | Version:  2412                                  |
|   \\  /    A nd           | Website:  www.openfoam.com                      |
|    \\/     M anipulation  |                                                 |
\*---------------------------------------------------------------------------*/
FoamFile
{
    version     2.0;
    format      ascii;
    arch        "LSB;label=32;scalar=64";
    class       volScalarField;
    location    "7.7e-06";
    object      rho;
}
// * * * * * * * * * * * * * * * * * * * * * * * * * * * * * * * * * * * * * //

dimensions      [0 0 0 0 0 0 0];

internalField   nonuniform List<scalar> 
84
(
2.81118e-05
2.4302e-06
9.4346e-06
2.81249e-05
2.43741e-06
9.44263e-06
2.81216e-05
2.43657e-06
9.44101e-06
2.81216e-05
2.43657e-06
9.44101e-06
2.81216e-05
2.43657e-06
9.44101e-06
2.81216e-05
2.43657e-06
9.44101e-06
2.81216e-05
2.43657e-06
9.44101e-06
2.81216e-05
2.43657e-06
9.44101e-06
2.81216e-05
2.43657e-06
9.44101e-06
2.81216e-05
2.43657e-06
9.44101e-06
2.81216e-05
2.43655e-06
9.441e-06
2.81216e-05
2.4347e-06
9.4403e-06
1.84491e-05
1.70421e-05
1.73066e-05
1.98117e-05
1.82127e-05
1.85036e-05
1.96653e-05
1.80868e-05
1.8373e-05
1.95197e-05
1.79617e-05
1.81202e-05
1.69911e-05
1.93748e-05
1.78372e-05
1.79917e-05
1.81256e-05
1.92299e-05
1.77127e-05
1.78634e-05
1.79966e-05
1.90853e-05
1.75888e-05
1.77354e-05
1.7868e-05
1.89443e-05
1.74676e-05
1.76105e-05
1.77414e-05
1.87936e-05
1.73385e-05
1.74772e-05
1.74741e-05
1.70731e-05
1.86704e-05
1.7232e-05
1.73676e-05
1.73631e-05
1.75008e-05
1.85247e-05
1.71069e-05
1.72385e-05
1.72328e-05
1.74213e-05
1.83897e-05
1.69906e-05
1.71187e-05
1.72477e-05
)
;

boundaryField
{
    inlet
    {
        type            calculated;
        value           uniform 0;
    }
    outlet2
    {
        type            calculated;
        value           uniform 0;
    }
    outlet1
    {
        type            calculated;
        value           nonuniform List<scalar> 0();
    }
    wall
    {
        type            calculated;
        value           uniform 0;
    }
    symmetryBottom
    {
        type            symmetry;
    }
    symmetryZ0
    {
        type            symmetry;
    }
    symmetryZ05
    {
        type            symmetry;
    }
    procBoundary1to0
    {
        type            processor;
        value           uniform 0;
    }
}


// ************************************************************************* //
