/*--------------------------------*- C++ -*----------------------------------*\
| =========                 |                                                 |
| \\      /  F ield         | OpenFOAM: The Open Source CFD Toolbox           |
|  \\    /   O peration     | Version:  2412                                  |
|   \\  /    A nd           | Website:  www.openfoam.com                      |
|    \\/     M anipulation  |                                                 |
\*---------------------------------------------------------------------------*/
FoamFile
{
    version     2.0;
    format      ascii;
    arch        "LSB;label=32;scalar=64";
    class       volScalarField;
    location    "7.7e-06";
    object      T;
}
// * * * * * * * * * * * * * * * * * * * * * * * * * * * * * * * * * * * * * //

dimensions      [0 0 0 0 0 0 0];

internalField   nonuniform List<scalar> 
84
(
200.016
177.994
200.457
199.963
177.745
200.354
199.949
177.706
200.334
199.949
177.706
200.334
199.949
177.706
200.334
199.949
177.706
200.334
199.949
177.706
200.334
199.949
177.706
200.334
199.949
177.706
200.334
199.949
177.706
200.334
199.949
177.705
200.334
199.95
177.589
200.325
204.918
204.555
204.603
200.025
199.98
200
200.026
199.98
200.001
200.026
199.98
199.999
200.044
200.033
199.987
200.006
200.005
200.7
200.598
200.627
200.623
204.376
204.032
204.143
204.13
207.857
207.272
207.462
207.441
223.546
221.494
222.125
222.485
197.287
191.623
192.039
191.885
191.762
191.213
197.993
198.077
198.051
198.023
198.203
199.172
199.182
199.182
199.182
)
;

boundaryField
{
    inlet
    {
        type            calculated;
        value           uniform 0;
    }
    outlet2
    {
        type            calculated;
        value           uniform 0;
    }
    outlet1
    {
        type            calculated;
        value           nonuniform List<scalar> 0();
    }
    wall
    {
        type            calculated;
        value           uniform 0;
    }
    symmetryBottom
    {
        type            symmetry;
    }
    symmetryZ0
    {
        type            symmetry;
    }
    symmetryZ05
    {
        type            symmetry;
    }
    procBoundary1to0
    {
        type            processor;
        value           uniform 0;
    }
}


// ************************************************************************* //
