/*--------------------------------*- C++ -*----------------------------------*\
| =========                 |                                                 |
| \\      /  F ield         | OpenFOAM: The Open Source CFD Toolbox           |
|  \\    /   O peration     | Version:  2412                                  |
|   \\  /    A nd           | Website:  www.openfoam.com                      |
|    \\/     M anipulation  |                                                 |
\*---------------------------------------------------------------------------*/
FoamFile
{
    version     2.0;
    format      ascii;
    arch        "LSB;label=32;scalar=64";
    class       volScalarField;
    location    "6.9e-06";
    object      E_dof0;
}
// * * * * * * * * * * * * * * * * * * * * * * * * * * * * * * * * * * * * * //

dimensions      [0 0 0 0 0 0 0];

internalField   nonuniform List<scalar> 
84
(
99.4404
14.9106
36.0026
99.4789
14.9361
36.0288
99.4692
14.9329
36.0237
99.4692
14.9329
36.0237
99.4692
14.9329
36.0237
99.4692
14.9329
36.0237
99.4692
14.9329
36.0237
99.4692
14.9329
36.0237
99.4692
14.9329
36.0237
99.4692
14.9329
36.0237
99.4692
14.9329
36.0237
99.4694
14.9267
36.021
67.509
63.1767
63.9817
72.0543
67.1597
68.0372
71.573
66.7377
67.602
71.0943
66.3183
66.7619
63.0274
70.6177
65.9008
66.3327
66.7831
70.1434
65.4851
65.9054
66.3538
69.6803
65.0787
65.4877
65.9342
69.2304
64.6834
65.0818
65.5231
68.8138
64.3125
64.7017
64.7003
63.2541
68.2458
63.826
64.1999
64.1915
64.6466
67.8024
63.4357
63.799
63.7867
64.3936
67.3634
63.0497
63.4028
63.8382
)
;

boundaryField
{
    inlet
    {
        type            calculated;
        value           uniform 99.4306;
    }
    outlet2
    {
        type            calculated;
        value           uniform 99.4306;
    }
    outlet1
    {
        type            calculated;
        value           nonuniform List<scalar> 0();
    }
    wall
    {
        type            calculated;
        value           uniform 99.4306;
    }
    symmetryBottom
    {
        type            symmetry;
    }
    symmetryZ0
    {
        type            symmetry;
    }
    symmetryZ05
    {
        type            symmetry;
    }
    procBoundary1to0
    {
        type            processor;
        value           uniform 99.4306;
    }
}


// ************************************************************************* //
