/*--------------------------------*- C++ -*----------------------------------*\
| =========                 |                                                 |
| \\      /  F ield         | OpenFOAM: The Open Source CFD Toolbox           |
|  \\    /   O peration     | Version:  2412                                  |
|   \\  /    A nd           | Website:  www.openfoam.com                      |
|    \\/     M anipulation  |                                                 |
\*---------------------------------------------------------------------------*/
FoamFile
{
    version     2.0;
    format      ascii;
    arch        "LSB;label=32;scalar=64";
    class       volScalarField;
    location    "6.9e-06";
    object      rho_dof0;
}
// * * * * * * * * * * * * * * * * * * * * * * * * * * * * * * * * * * * * * //

dimensions      [0 0 0 0 0 0 0];

internalField   nonuniform List<scalar> 
84
(
2.81112e-05
4.4257e-06
1.02743e-05
2.81222e-05
4.43307e-06
1.02817e-05
2.81194e-05
4.43216e-06
1.02803e-05
2.81194e-05
4.43216e-06
1.02803e-05
2.81194e-05
4.43216e-06
1.02803e-05
2.81194e-05
4.43216e-06
1.02803e-05
2.81194e-05
4.43216e-06
1.02803e-05
2.81194e-05
4.43216e-06
1.02803e-05
2.81194e-05
4.43216e-06
1.02803e-05
2.81194e-05
4.43216e-06
1.02803e-05
2.81194e-05
4.43214e-06
1.02803e-05
2.81195e-05
4.4304e-06
1.02795e-05
1.91735e-05
1.79683e-05
1.8192e-05
2.04347e-05
1.90753e-05
1.93188e-05
2.02999e-05
1.89568e-05
1.91967e-05
2.01658e-05
1.88391e-05
1.89611e-05
1.7914e-05
2.00322e-05
1.87218e-05
1.88406e-05
1.89671e-05
1.98987e-05
1.86047e-05
1.87202e-05
1.88461e-05
1.97655e-05
1.84879e-05
1.86002e-05
1.87255e-05
1.96351e-05
1.83735e-05
1.84827e-05
1.86066e-05
1.9497e-05
1.82525e-05
1.83582e-05
1.83577e-05
1.79822e-05
1.93812e-05
1.81504e-05
1.82536e-05
1.82516e-05
1.83799e-05
1.92471e-05
1.80327e-05
1.81326e-05
1.81294e-05
1.82995e-05
1.91217e-05
1.79224e-05
1.80194e-05
1.81417e-05
)
;

boundaryField
{
    inlet
    {
        type            calculated;
        value           uniform 2.81085e-05;
    }
    outlet2
    {
        type            calculated;
        value           uniform 2.81085e-05;
    }
    outlet1
    {
        type            calculated;
        value           nonuniform List<scalar> 0();
    }
    wall
    {
        type            calculated;
        value           uniform 2.81085e-05;
    }
    symmetryBottom
    {
        type            symmetry;
    }
    symmetryZ0
    {
        type            symmetry;
    }
    symmetryZ05
    {
        type            symmetry;
    }
    procBoundary1to0
    {
        type            processor;
        value           uniform 2.81085e-05;
    }
}


// ************************************************************************* //
