/*--------------------------------*- C++ -*----------------------------------*\
| =========                 |                                                 |
| \\      /  F ield         | OpenFOAM: The Open Source CFD Toolbox           |
|  \\    /   O peration     | Version:  2412                                  |
|   \\  /    A nd           | Website:  www.openfoam.com                      |
|    \\/     M anipulation  |                                                 |
\*---------------------------------------------------------------------------*/
FoamFile
{
    version     2.0;
    format      ascii;
    arch        "LSB;label=32;scalar=64";
    class       volScalarField;
    location    "1.2e-06";
    object      E_dof0;
}
// * * * * * * * * * * * * * * * * * * * * * * * * * * * * * * * * * * * * * //

dimensions      [0 0 0 0 0 0 0];

internalField   nonuniform List<scalar> 
84
(
99.4309
81.1593
81.9602
99.4323
81.1641
81.9647
99.432
81.1638
81.9643
99.432
81.1638
81.9643
99.432
81.1638
81.9643
99.432
81.1638
81.9643
99.432
81.1638
81.9643
99.432
81.1638
81.9643
99.432
81.1638
81.9643
99.432
81.1638
81.9643
99.432
81.1638
81.9643
99.432
81.1623
81.963
92.1308
91.9392
92.0447
93.1434
92.9468
93.0533
93.0402
92.8441
92.9503
92.9372
92.7416
92.7556
91.9148
92.8342
92.6391
92.6517
92.757
92.732
92.5374
92.5485
92.6538
92.6321
92.4379
92.4476
92.5527
92.533
92.3393
92.3475
92.4525
92.4446
92.2512
92.2581
92.2629
91.9226
92.3113
92.1189
92.1239
92.1268
92.2328
92.2164
92.0244
92.0281
92.0296
92.1402
92.1161
91.9245
91.9267
92.0315
)
;

boundaryField
{
    inlet
    {
        type            calculated;
        value           uniform 99.4306;
    }
    outlet2
    {
        type            calculated;
        value           uniform 99.4306;
    }
    outlet1
    {
        type            calculated;
        value           nonuniform List<scalar> 0();
    }
    wall
    {
        type            calculated;
        value           uniform 99.4306;
    }
    symmetryBottom
    {
        type            symmetry;
    }
    symmetryZ0
    {
        type            symmetry;
    }
    symmetryZ05
    {
        type            symmetry;
    }
    procBoundary1to0
    {
        type            processor;
        value           uniform 99.4306;
    }
}


// ************************************************************************* //
