/*--------------------------------*- C++ -*----------------------------------*\
| =========                 |                                                 |
| \\      /  F ield         | OpenFOAM: The Open Source CFD Toolbox           |
|  \\    /   O peration     | Version:  2412                                  |
|   \\  /    A nd           | Website:  www.openfoam.com                      |
|    \\/     M anipulation  |                                                 |
\*---------------------------------------------------------------------------*/
FoamFile
{
    version     2.0;
    format      ascii;
    arch        "LSB;label=32;scalar=64";
    class       volScalarField;
    location    "1.2e-06";
    object      rho_dof0;
}
// * * * * * * * * * * * * * * * * * * * * * * * * * * * * * * * * * * * * * //

dimensions      [0 0 0 0 0 0 0];

internalField   nonuniform List<scalar> 
84
(
2.81086e-05
2.30008e-05
2.32222e-05
2.8109e-05
2.30022e-05
2.32234e-05
2.81089e-05
2.30021e-05
2.32233e-05
2.81089e-05
2.30021e-05
2.32233e-05
2.81089e-05
2.30021e-05
2.32233e-05
2.81089e-05
2.30021e-05
2.32233e-05
2.81089e-05
2.30021e-05
2.32233e-05
2.81089e-05
2.30021e-05
2.32233e-05
2.81089e-05
2.30021e-05
2.32233e-05
2.81089e-05
2.30021e-05
2.32233e-05
2.81089e-05
2.30021e-05
2.32233e-05
2.81089e-05
2.30017e-05
2.3223e-05
2.60702e-05
2.60173e-05
2.60468e-05
2.63505e-05
2.62962e-05
2.6326e-05
2.63217e-05
2.62675e-05
2.62972e-05
2.62929e-05
2.62389e-05
2.62428e-05
2.60077e-05
2.62641e-05
2.62102e-05
2.62137e-05
2.62432e-05
2.62354e-05
2.61816e-05
2.61847e-05
2.62141e-05
2.62066e-05
2.6153e-05
2.61557e-05
2.61851e-05
2.6178e-05
2.61245e-05
2.61268e-05
2.61561e-05
2.61492e-05
2.60958e-05
2.60976e-05
2.60989e-05
2.60101e-05
2.6121e-05
2.60678e-05
2.60692e-05
2.60701e-05
2.60997e-05
2.60923e-05
2.60392e-05
2.60402e-05
2.60407e-05
2.60716e-05
2.60637e-05
2.60107e-05
2.60113e-05
2.60406e-05
)
;

boundaryField
{
    inlet
    {
        type            calculated;
        value           uniform 2.81085e-05;
    }
    outlet2
    {
        type            calculated;
        value           uniform 2.81085e-05;
    }
    outlet1
    {
        type            calculated;
        value           nonuniform List<scalar> 0();
    }
    wall
    {
        type            calculated;
        value           uniform 2.81085e-05;
    }
    symmetryBottom
    {
        type            symmetry;
    }
    symmetryZ0
    {
        type            symmetry;
    }
    symmetryZ05
    {
        type            symmetry;
    }
    procBoundary1to0
    {
        type            processor;
        value           uniform 2.81085e-05;
    }
}


// ************************************************************************* //
