/*--------------------------------*- C++ -*----------------------------------*\
| =========                 |                                                 |
| \\      /  F ield         | OpenFOAM: The Open Source CFD Toolbox           |
|  \\    /   O peration     | Version:  2412                                  |
|   \\  /    A nd           | Website:  www.openfoam.com                      |
|    \\/     M anipulation  |                                                 |
\*---------------------------------------------------------------------------*/
FoamFile
{
    version     2.0;
    format      ascii;
    arch        "LSB;label=32;scalar=64";
    class       volScalarField;
    location    "1.2e-06";
    object      T;
}
// * * * * * * * * * * * * * * * * * * * * * * * * * * * * * * * * * * * * * //

dimensions      [0 0 0 0 0 0 0];

internalField   nonuniform List<scalar> 
84
(
200.001
199.993
200.003
199.999
199.988
199.998
199.998
199.987
199.998
199.998
199.987
199.998
199.998
199.987
199.998
199.998
199.987
199.998
199.998
199.987
199.998
199.998
199.987
199.998
199.998
199.987
199.998
199.998
199.987
199.998
199.998
199.987
199.998
199.998
199.985
199.995
200.717
200.714
200.714
200.002
200
200
200.002
200
200
200.002
200
200
200.001
200.002
200
200
200
200.14
200.138
200.14
200.14
200.644
200.641
200.65
200.65
201.118
201.113
201.129
201.129
202.937
202.928
202.971
203.014
199.949
198.812
198.813
198.795
198.778
198.771
199.719
199.718
199.714
199.71
199.714
199.884
199.882
199.881
199.881
)
;

boundaryField
{
    inlet
    {
        type            calculated;
        value           uniform 0;
    }
    outlet2
    {
        type            calculated;
        value           uniform 0;
    }
    outlet1
    {
        type            calculated;
        value           nonuniform List<scalar> 0();
    }
    wall
    {
        type            calculated;
        value           uniform 0;
    }
    symmetryBottom
    {
        type            symmetry;
    }
    symmetryZ0
    {
        type            symmetry;
    }
    symmetryZ05
    {
        type            symmetry;
    }
    procBoundary1to0
    {
        type            processor;
        value           uniform 0;
    }
}


// ************************************************************************* //
