/*--------------------------------*- C++ -*----------------------------------*\
| =========                 |                                                 |
| \\      /  F ield         | OpenFOAM: The Open Source CFD Toolbox           |
|  \\    /   O peration     | Version:  2412                                  |
|   \\  /    A nd           | Website:  www.openfoam.com                      |
|    \\/     M anipulation  |                                                 |
\*---------------------------------------------------------------------------*/
FoamFile
{
    version     2.0;
    format      ascii;
    arch        "LSB;label=32;scalar=64";
    class       volScalarField;
    location    "2.1e-06";
    object      E;
}
// * * * * * * * * * * * * * * * * * * * * * * * * * * * * * * * * * * * * * //

dimensions      [0 0 0 0 0 0 0];

internalField   nonuniform List<scalar> 
84
(
99.4316
68.5727
71.0008
99.436
68.5821
71.0094
99.4349
68.5812
71.0085
99.4349
68.5812
71.0085
99.4349
68.5812
71.0085
99.4349
68.5812
71.0085
99.4349
68.5812
71.0085
99.4349
68.5812
71.0085
99.4349
68.5812
71.0085
99.4349
68.5812
71.0085
99.4349
68.5812
71.0085
99.435
68.5787
71.0064
87.2623
86.6934
86.8788
88.963
88.3572
88.5464
88.7887
88.1866
88.3749
88.6147
88.0163
88.0493
86.6379
88.4409
87.8463
87.8766
88.0537
88.2683
87.6774
87.7052
87.8821
88.0997
87.5123
87.5376
87.7142
87.933
87.3491
87.3719
87.5479
87.7833
87.2021
87.2226
87.2305
86.6627
87.5612
86.986
87.0033
87.008
87.185
87.4009
86.8289
86.8438
86.8463
87.0386
87.233
86.6645
86.677
86.8522
)
;

boundaryField
{
    inlet
    {
        type            calculated;
        value           uniform 0;
    }
    outlet2
    {
        type            calculated;
        value           uniform 0;
    }
    outlet1
    {
        type            calculated;
        value           nonuniform List<scalar> 0();
    }
    wall
    {
        type            calculated;
        value           uniform 0;
    }
    symmetryBottom
    {
        type            symmetry;
    }
    symmetryZ0
    {
        type            symmetry;
    }
    symmetryZ05
    {
        type            symmetry;
    }
    procBoundary1to0
    {
        type            processor;
        value           uniform 0;
    }
}


// ************************************************************************* //
