/*--------------------------------*- C++ -*----------------------------------*\
| =========                 |                                                 |
| \\      /  F ield         | OpenFOAM: The Open Source CFD Toolbox           |
|  \\    /   O peration     | Version:  2412                                  |
|   \\  /    A nd           | Website:  www.openfoam.com                      |
|    \\/     M anipulation  |                                                 |
\*---------------------------------------------------------------------------*/
FoamFile
{
    version     2.0;
    format      ascii;
    arch        "LSB;label=32;scalar=64";
    class       volScalarField;
    location    "2.1e-06";
    object      rho_dof0;
}
// * * * * * * * * * * * * * * * * * * * * * * * * * * * * * * * * * * * * * //

dimensions      [0 0 0 0 0 0 0];

internalField   nonuniform List<scalar> 
84
(
2.81088e-05
1.94788e-05
2.01503e-05
2.811e-05
1.94815e-05
2.01527e-05
2.81097e-05
1.94813e-05
2.01525e-05
2.81097e-05
1.94813e-05
2.01525e-05
2.81097e-05
1.94813e-05
2.01525e-05
2.81097e-05
1.94813e-05
2.01525e-05
2.81097e-05
1.94813e-05
2.01525e-05
2.81097e-05
1.94813e-05
2.01525e-05
2.81097e-05
1.94813e-05
2.01525e-05
2.81097e-05
1.94813e-05
2.01525e-05
2.81097e-05
1.94813e-05
2.01525e-05
2.81098e-05
1.94805e-05
2.01519e-05
2.47092e-05
2.45517e-05
2.46035e-05
2.51801e-05
2.50126e-05
2.50654e-05
2.51314e-05
2.49649e-05
2.50175e-05
2.50827e-05
2.49173e-05
2.49264e-05
2.45316e-05
2.50341e-05
2.48697e-05
2.48781e-05
2.49276e-05
2.49856e-05
2.48221e-05
2.48298e-05
2.48793e-05
2.49371e-05
2.47747e-05
2.47817e-05
2.48311e-05
2.48889e-05
2.47275e-05
2.47338e-05
2.4783e-05
2.484e-05
2.46797e-05
2.46852e-05
2.46872e-05
2.45391e-05
2.47933e-05
2.4634e-05
2.46388e-05
2.46402e-05
2.46897e-05
2.47447e-05
2.45864e-05
2.45905e-05
2.45913e-05
2.4645e-05
2.46969e-05
2.45396e-05
2.4543e-05
2.4592e-05
)
;

boundaryField
{
    inlet
    {
        type            calculated;
        value           uniform 2.81085e-05;
    }
    outlet2
    {
        type            calculated;
        value           uniform 2.81085e-05;
    }
    outlet1
    {
        type            calculated;
        value           nonuniform List<scalar> 0();
    }
    wall
    {
        type            calculated;
        value           uniform 2.81085e-05;
    }
    symmetryBottom
    {
        type            symmetry;
    }
    symmetryZ0
    {
        type            symmetry;
    }
    symmetryZ05
    {
        type            symmetry;
    }
    procBoundary1to0
    {
        type            processor;
        value           uniform 2.81085e-05;
    }
}


// ************************************************************************* //
