/*--------------------------------*- C++ -*----------------------------------*\
| =========                 |                                                 |
| \\      /  F ield         | OpenFOAM: The Open Source CFD Toolbox           |
|  \\    /   O peration     | Version:  2412                                  |
|   \\  /    A nd           | Website:  www.openfoam.com                      |
|    \\/     M anipulation  |                                                 |
\*---------------------------------------------------------------------------*/
FoamFile
{
    version     2.0;
    format      ascii;
    arch        "LSB;label=32;scalar=64";
    class       volVectorField;
    location    "2.1e-06";
    object      rhoU_dof0;
}
// * * * * * * * * * * * * * * * * * * * * * * * * * * * * * * * * * * * * * //

dimensions      [0 0 0 0 0 0 0];

internalField   nonuniform List<vector> 
84
(
(0.0741057 -7.67479e-08 0)
(0.051228 -2.52121e-07 0)
(0.0530182 -2.24382e-07 -6.55739e-20)
(0.0741089 -5.42802e-05 0)
(0.051235 -4.16732e-05 0)
(0.0530246 -4.27282e-05 -6.55734e-20)
(0.0741081 -5.41967e-05 0)
(0.0512344 -4.16078e-05 0)
(0.0530239 -4.26612e-05 9.99215e-20)
(0.0741081 -5.41967e-05 0)
(0.0512344 -4.16078e-05 0)
(0.0530239 -4.26612e-05 -1.24914e-19)
(0.0741081 -5.41967e-05 0)
(0.0512344 -4.16078e-05 0)
(0.0530239 -4.26612e-05 -2.139e-19)
(0.0741081 -5.41967e-05 0)
(0.0512344 -4.16078e-05 0)
(0.0530239 -4.26612e-05 1.20218e-19)
(0.0741081 -5.41967e-05 0)
(0.0512344 -4.16078e-05 0)
(0.0530239 -4.26612e-05 -1.49894e-19)
(0.0741081 -5.41967e-05 0)
(0.0512344 -4.16078e-05 0)
(0.0530239 -4.26612e-05 -1.76429e-19)
(0.0741081 -5.41967e-05 0)
(0.0512344 -4.16078e-05 0)
(0.0530239 -4.26612e-05 6.40102e-20)
(0.0741081 -5.41967e-05 0)
(0.0512344 -4.16078e-05 0)
(0.0530239 -4.26612e-05 -1.499e-19)
(0.0741081 -5.41967e-05 0)
(0.0512343 -4.16073e-05 0)
(0.0530239 -4.26608e-05 -3.68476e-19)
(0.0741082 -5.42044e-05 0)
(0.0512325 -4.14225e-05 0)
(0.0530224 -4.25051e-05 0)
(0.0650848 5.40754e-05 2.1842e-21)
(0.0646652 5.29119e-05 5.69424e-20)
(0.0648026 5.30305e-05 5.66924e-21)
(0.0663432 -5.39389e-05 2.09429e-21)
(0.0658966 -5.43684e-05 6.09188e-20)
(0.0660368 -5.44487e-05 -5.13233e-22)
(0.066214 -5.38459e-05 -3.40678e-21)
(0.0657701 -5.42742e-05 -2.79587e-20)
(0.0659096 -5.43368e-05 -1.2219e-19)
(0.066085 -5.37515e-05 4.41593e-21)
(0.0656439 -5.41803e-05 -1.02211e-21)
(0.0656682 -5.49683e-05 2.89652e-23)
(0.0646218 1.2561e-06 8.61358e-20)
(0.0659562 -5.36612e-05 -2.49233e-20)
(0.0655178 -5.40903e-05 -7.27361e-23)
(0.0655402 -5.48756e-05 -9.30392e-22)
(0.0656715 -5.49512e-05 8.80261e-20)
(0.0658272 -5.0942e-05 -4.31126e-21)
(0.0653915 -5.14316e-05 -6.08352e-20)
(0.065412 -5.21799e-05 2.55667e-22)
(0.0655431 -5.22523e-05 5.85472e-20)
(0.0656978 -4.06947e-05 4.90631e-21)
(0.0652649 -4.13929e-05 -2.21927e-22)
(0.0652834 -4.19872e-05 -3.60385e-22)
(0.0654143 -4.20461e-05 -4.84504e-22)
(0.0655697 -3.40874e-05 6.62293e-21)
(0.0651395 -3.492e-05 -5.81907e-20)
(0.0651561 -3.5417e-05 6.40381e-20)
(0.0652866 -3.54541e-05 5.13003e-22)
(0.0654399 -3.06375e-05 -2.19339e-21)
(0.0650123 -3.15354e-05 -8.9553e-20)
(0.065027 -3.19772e-05 -8.81729e-20)
(0.0650324 -3.24417e-05 9.58718e-20)
(0.0646413 1.34523e-06 5.98567e-19)
(0.0653169 -3.0573e-05 5.5539e-21)
(0.0648924 -3.14672e-05 -8.99682e-20)
(0.0649053 -3.19019e-05 6.09128e-20)
(0.0649089 -3.23597e-05 1.46414e-19)
(0.0650403 -3.24695e-05 9.31459e-20)
(0.0651885 -3.45124e-05 1.35838e-20)
(0.0647666 -3.53215e-05 -2.60331e-22)
(0.0647776 -3.58154e-05 1.19124e-22)
(0.0647795 -3.63436e-05 -2.7897e-23)
(0.064922 -3.72441e-05 -8.88045e-20)
(0.065062 -4.16849e-05 6.63794e-23)
(0.0646427 -4.23309e-05 8.60512e-20)
(0.0646519 -4.29285e-05 -2.83449e-21)
(0.0647818 -4.29832e-05 -1.52542e-19)
)
;

boundaryField
{
    inlet
    {
        type            calculated;
        value           uniform (0.0741049 0 0);
    }
    outlet2
    {
        type            calculated;
        value           uniform (0.0741049 0 0);
    }
    outlet1
    {
        type            calculated;
        value           nonuniform List<vector> 0();
    }
    wall
    {
        type            calculated;
        value           uniform (0.0741049 0 0);
    }
    symmetryBottom
    {
        type            symmetry;
    }
    symmetryZ0
    {
        type            symmetry;
    }
    symmetryZ05
    {
        type            symmetry;
    }
    procBoundary1to0
    {
        type            processor;
        value           uniform (0.0741049 0 0);
    }
}


// ************************************************************************* //
