/*--------------------------------*- C++ -*----------------------------------*\
| =========                 |                                                 |
| \\      /  F ield         | OpenFOAM: The Open Source CFD Toolbox           |
|  \\    /   O peration     | Version:  2412                                  |
|   \\  /    A nd           | Website:  www.openfoam.com                      |
|    \\/     M anipulation  |                                                 |
\*---------------------------------------------------------------------------*/
FoamFile
{
    version     2.0;
    format      ascii;
    arch        "LSB;label=32;scalar=64";
    class       volScalarField;
    location    "2.1e-06";
    object      T;
}
// * * * * * * * * * * * * * * * * * * * * * * * * * * * * * * * * * * * * * //

dimensions      [0 0 0 0 0 0 0];

internalField   nonuniform List<scalar> 
84
(
200.002
199.966
200.009
199.996
199.954
199.997
199.994
199.952
199.996
199.994
199.952
199.996
199.994
199.952
199.996
199.994
199.952
199.996
199.994
199.952
199.996
199.994
199.952
199.996
199.994
199.952
199.996
199.994
199.952
199.996
199.994
199.952
199.996
199.995
199.947
199.992
201.272
201.249
201.249
200.005
199.999
200
200.005
199.999
200
200.005
199.999
200
200.003
200.005
200
200
200
200.241
200.232
200.235
200.235
201.141
201.12
201.137
201.136
201.988
201.954
201.984
201.982
205.293
205.209
205.289
205.367
199.833
197.884
197.907
197.876
197.844
197.819
199.5
199.502
199.495
199.488
199.501
199.794
199.791
199.789
199.789
)
;

boundaryField
{
    inlet
    {
        type            calculated;
        value           uniform 0;
    }
    outlet2
    {
        type            calculated;
        value           uniform 0;
    }
    outlet1
    {
        type            calculated;
        value           nonuniform List<scalar> 0();
    }
    wall
    {
        type            calculated;
        value           uniform 0;
    }
    symmetryBottom
    {
        type            symmetry;
    }
    symmetryZ0
    {
        type            symmetry;
    }
    symmetryZ05
    {
        type            symmetry;
    }
    procBoundary1to0
    {
        type            processor;
        value           uniform 0;
    }
}


// ************************************************************************* //
