/*--------------------------------*- C++ -*----------------------------------*\
| =========                 |                                                 |
| \\      /  F ield         | OpenFOAM: The Open Source CFD Toolbox           |
|  \\    /   O peration     | Version:  2412                                  |
|   \\  /    A nd           | Website:  www.openfoam.com                      |
|    \\/     M anipulation  |                                                 |
\*---------------------------------------------------------------------------*/
FoamFile
{
    version     2.0;
    format      ascii;
    arch        "LSB;label=32;scalar=64";
    class       volVectorField;
    location    "2.5e-06";
    object      rhoU_dof0;
}
// * * * * * * * * * * * * * * * * * * * * * * * * * * * * * * * * * * * * * //

dimensions      [0 0 0 0 0 0 0];

internalField   nonuniform List<vector> 
84
(
(0.0738694 7.35341e-05 7.50706e-20)
(0.0625866 6.35177e-05 -7.64515e-20)
(0.0630362 6.48837e-05 -1.77473e-19)
(0.0630255 6.58376e-05 8.18809e-20)
(0.0630265 6.68315e-05 -3.1709e-21)
(0.0630273 6.78558e-05 9.81895e-21)
(0.0630282 6.89119e-05 1.64644e-19)
(0.063197 6.90497e-05 3.65106e-20)
(0.0755838 -7.54952e-05 7.7661e-20)
(0.0640707 -6.57775e-05 -7.4023e-20)
(0.0645522 -6.71676e-05 -2.13878e-19)
(0.0645642 -6.81942e-05 1.09133e-20)
(0.064589 -6.92622e-05 -3.78064e-19)
(0.0646142 -7.03641e-05 5.47458e-20)
(0.0646403 -7.15016e-05 3.07772e-19)
(0.0648122 -7.1634e-05 6.71301e-20)
(0.0753424 -7.20378e-05 -3.51225e-19)
(0.0639738 -6.8296e-05 5.2741e-20)
(0.0643932 -6.68916e-05 1.08585e-19)
(0.0644056 -6.8044e-05 -5.57425e-21)
(0.0644278 -6.91038e-05 -2.76746e-21)
(0.0644505 -7.02008e-05 1.53356e-19)
(0.0644739 -7.1333e-05 -1.21316e-19)
(0.0646456 -7.14653e-05 -1.57361e-19)
(0.0751999 -7.36786e-05 -3.49346e-19)
(0.0637843 -6.6531e-05 1.60563e-19)
(0.0642589 -6.7896e-05 -7.3848e-21)
(0.0642668 -6.89458e-05 -3.43173e-19)
(0.0642872 -7.00378e-05 3.21766e-19)
(0.064308 -7.11648e-05 6.88063e-20)
(0.0644793 -7.12969e-05 -1.21626e-19)
(0.0750776 -7.61582e-05 -1.90477e-19)
(0.0636282 -6.63231e-05 -6.65449e-20)
(0.0641009 -6.77514e-05 2.79184e-21)
(0.0641063 -6.87954e-05 8.22511e-22)
(0.0641241 -6.98828e-05 -1.10333e-19)
(0.0641423 -7.10048e-05 8.45939e-20)
(0.0643133 -7.11368e-05 2.28004e-19)
(0.0748992 -7.25563e-05 -1.18698e-19)
(0.0634733 -6.31295e-05 1.89804e-19)
(0.0639426 -6.44991e-05 -7.49642e-21)
(0.0639456 -6.54986e-05 2.27601e-19)
(0.0639608 -6.65398e-05 -2.01718e-19)
(0.0639764 -6.76145e-05 1.70162e-19)
(0.0641471 -6.7741e-05 -3.67685e-19)
(0.0747199 -5.83846e-05 -2.11833e-23)
(0.063318 -5.07725e-05 1.86587e-19)
(0.0637838 -5.18669e-05 -7.40284e-21)
(0.0637843 -5.26686e-05 -4.07494e-22)
(0.063797 -5.35035e-05 1.90824e-19)
(0.06381 -5.43651e-05 3.00725e-20)
(0.0639803 -5.44676e-05 2.02768e-19)
(0.0745079 -4.65746e-05 1.05876e-21)
(0.0631957 -4.49443e-05 7.11797e-22)
(0.0636254 -4.36765e-05 -6.2045e-22)
(0.063625 -4.44577e-05 -9.89105e-22)
(0.0636352 -4.51615e-05 -1.45308e-22)
(0.0636455 -4.58907e-05 2.77259e-22)
(0.0638156 -4.59779e-05 -1.57076e-19)
(0.0743418 -4.36266e-05 4.28058e-19)
(0.0630154 -3.92042e-05 -1.61572e-20)
(0.063474 -4.00287e-05 -3.81261e-19)
(0.0634699 -4.06518e-05 -1.41914e-19)
(0.0634777 -4.13006e-05 1.9973e-19)
(0.0636475 -4.13801e-05 -1.15293e-22)
(0.0742015 -4.49213e-05 -1.48404e-19)
(0.0628672 -3.89396e-05 5.8328e-21)
(0.0633235 -3.97885e-05 -1.87489e-19)
(0.0633171 -4.03962e-05 1.96535e-19)
(0.0633226 -4.10297e-05 3.35868e-19)
(0.063492 -4.11095e-05 -1.32191e-20)
(0.0740045 -4.90008e-05 -1.9895e-19)
(0.0627112 -4.38272e-05 7.76333e-21)
(0.0631632 -4.47101e-05 -1.02258e-23)
(0.0631543 -4.53981e-05 3.40348e-19)
(0.0631572 -4.6113e-05 3.64819e-19)
(0.0633263 -4.62026e-05 2.64443e-20)
(0.0736569 -3.23169e-06 -6.99676e-21)
(0.0625758 -5.4673e-05 1.75833e-22)
(0.0630055 -5.26496e-05 -3.17661e-24)
(0.062995 -5.35445e-05 2.2254e-19)
(0.0629953 -5.43699e-05 -9.02497e-21)
(0.0629955 -5.52233e-05 2.30528e-22)
(0.0631643 -5.53322e-05 -1.97517e-19)
)
;

boundaryField
{
    inlet
    {
        type            calculated;
        value           nonuniform List<vector> 0();
    }
    outlet2
    {
        type            calculated;
        value           uniform (0.0741049 0 0);
    }
    outlet1
    {
        type            calculated;
        value           uniform (0.0741049 0 0);
    }
    wall
    {
        type            calculated;
        value           uniform (0.0741049 0 0);
    }
    symmetryBottom
    {
        type            symmetry;
    }
    symmetryZ0
    {
        type            symmetry;
    }
    symmetryZ05
    {
        type            symmetry;
    }
    procBoundary0to1
    {
        type            processor;
        value           uniform (0.0741049 0 0);
    }
}


// ************************************************************************* //
