/*--------------------------------*- C++ -*----------------------------------*\
| =========                 |                                                 |
| \\      /  F ield         | OpenFOAM: The Open Source CFD Toolbox           |
|  \\    /   O peration     | Version:  2412                                  |
|   \\  /    A nd           | Website:  www.openfoam.com                      |
|    \\/     M anipulation  |                                                 |
\*---------------------------------------------------------------------------*/
FoamFile
{
    version     2.0;
    format      ascii;
    arch        "LSB;label=32;scalar=64";
    class       volScalarField;
    location    "9.96134e-07";
    object      E;
}
// * * * * * * * * * * * * * * * * * * * * * * * * * * * * * * * * * * * * * //

dimensions      [0 0 0 0 0 0 0];

internalField   nonuniform List<scalar> 
625
(
101.034
84.7006
84.7007
101.037
84.7028
84.7028
101.034
84.7007
84.7007
101.034
84.7007
84.7007
101.034
84.7007
84.7007
101.034
84.7007
84.7007
101.034
84.7007
84.7007
101.034
84.7007
84.7007
101.034
84.7007
84.7007
101.034
84.7007
84.7007
101.034
84.7007
84.7007
101.034
84.7007
84.7007
101.034
84.7007
84.7007
101.034
84.7007
84.7007
101.034
84.7007
84.7007
101.034
84.7007
84.7007
101.034
84.7007
84.7007
101.034
84.7007
84.7007
101.034
84.7007
84.7007
101.034
84.7007
84.7007
101.034
84.7007
84.7007
101.034
84.7007
84.7007
101.034
84.7007
84.7007
101.034
84.7007
84.7008
101.035
84.6973
84.6974
87.0302
87.0289
87.0276
87.0263
87.0249
87.0236
87.0222
87.0209
87.0195
87.0181
87.0167
87.0152
87.0138
87.0123
87.0108
87.0093
87.0078
87.0063
87.0047
87.0032
87.0016
87.0917
89.1246
89.1378
89.1512
89.1648
89.1786
89.1926
89.2068
89.2212
89.2358
89.2507
89.2657
89.2811
89.2966
89.3124
89.3284
89.3447
89.3612
89.378
89.3951
89.4124
89.4301
89.5226
89.0171
89.0294
89.0418
89.0545
89.0673
89.0803
89.0934
89.1068
89.1204
89.1341
89.1481
89.1623
89.1767
89.1913
89.2061
89.2212
89.2365
89.2521
89.2679
89.2839
89.3002
89.3926
88.9368
88.9485
88.9604
88.9724
88.9846
88.997
89.0096
89.0224
89.0353
89.0484
89.0618
89.0753
89.089
89.103
89.1171
89.1315
89.1461
89.1609
89.176
89.1913
89.2068
89.2991
88.8565
88.8677
88.879
88.8905
88.9021
88.9139
88.9258
88.938
88.9503
88.9628
88.9755
88.9884
89.0014
89.0147
89.0282
89.0419
89.0558
89.0699
89.0842
89.0988
89.1136
89.2058
88.7763
88.7869
88.7977
88.8086
88.8196
88.8308
88.8421
88.8537
88.8654
88.8772
88.8893
88.9015
88.9139
88.9265
88.9393
88.9523
88.9655
88.9789
88.9925
89.0063
89.0204
89.1125
88.6962
88.7062
88.7164
88.7267
88.7372
88.7478
88.7585
88.7694
88.7805
88.7917
88.8032
88.8147
88.8265
88.8384
88.8505
88.8628
88.8753
88.888
88.9009
88.914
88.9273
89.0193
88.6161
88.6256
88.6352
88.6449
88.6548
88.6648
88.675
88.6853
88.6957
88.7063
88.7171
88.728
88.7391
88.7504
88.7618
88.7734
88.7852
88.7972
88.8094
88.8217
88.8343
88.9262
88.5361
88.545
88.554
88.5632
88.5725
88.5819
88.5915
88.6012
88.611
88.621
88.6311
88.6414
88.6518
88.6624
88.6732
88.6841
88.6952
88.7065
88.7179
88.7295
88.7413
88.8332
88.4562
88.4645
88.473
88.4816
88.4903
88.4991
88.508
88.5171
88.5263
88.5357
88.5452
88.5548
88.5646
88.5745
88.5846
88.5948
88.6052
88.6158
88.6265
88.6374
88.6485
88.7403
88.3765
88.3843
88.3922
88.4002
88.4083
88.4165
88.4249
88.4333
88.4419
88.4507
88.4595
88.4685
88.4776
88.4869
88.4963
88.5059
88.5156
88.5254
88.5354
88.5456
88.5559
88.6477
88.2968
88.3041
88.3114
88.3188
88.3264
88.334
88.3418
88.3496
88.3576
88.3657
88.374
88.3823
88.3908
88.3994
88.4081
88.417
88.426
88.4351
88.4444
88.4539
88.4635
88.5551
88.2173
88.2239
88.2307
88.2376
88.2445
88.2516
88.2587
88.266
88.2734
88.2809
88.2884
88.2962
88.304
88.3119
88.32
88.3282
88.3365
88.3449
88.3535
88.3622
88.3711
88.4626
88.1377
88.1439
88.1501
88.1563
88.1627
88.1692
88.1758
88.1824
88.1892
88.1961
88.203
88.2101
88.2173
88.2245
88.2319
88.2394
88.2471
88.2548
88.2627
88.2707
88.2788
88.3702
88.0583
88.0638
88.0695
88.0752
88.081
88.0869
88.0929
88.0989
88.1051
88.1113
88.1177
88.1241
88.1306
88.1372
88.144
88.1508
88.1577
88.1648
88.1719
88.1792
88.1866
88.2779
87.9789
87.9839
87.989
87.9941
87.9994
88.0047
88.0101
88.0155
88.021
88.0267
88.0324
88.0382
88.044
88.05
88.0561
88.0622
88.0685
88.0748
88.0812
88.0878
88.0944
88.1857
87.8996
87.904
87.9086
87.9131
87.9178
87.9225
87.9273
87.9322
87.9371
87.9421
87.9472
87.9523
87.9575
87.9628
87.9682
87.9737
87.9793
87.9849
87.9907
87.9965
88.0024
88.0936
87.8203
87.8242
87.8282
87.8322
87.8363
87.8404
87.8446
87.8489
87.8532
87.8576
87.862
87.8665
87.8711
87.8758
87.8805
87.8853
87.8902
87.8951
87.9001
87.9053
87.9104
88.0015
87.7411
87.7445
87.7479
87.7513
87.7548
87.7584
87.762
87.7657
87.7694
87.7731
87.777
87.7808
87.7848
87.7888
87.7928
87.797
87.8011
87.8054
87.8097
87.8141
87.8186
87.9096
87.662
87.6648
87.6676
87.6705
87.6735
87.6764
87.6795
87.6825
87.6856
87.6888
87.692
87.6952
87.6985
87.7019
87.7053
87.7087
87.7122
87.7158
87.7194
87.7231
87.7268
87.8177
87.5829
87.5852
87.5875
87.5898
87.5922
87.5945
87.597
87.5994
87.6019
87.6045
87.607
87.6097
87.6123
87.615
87.6177
87.6205
87.6233
87.6262
87.6291
87.6321
87.6351
87.7259
87.5039
87.5056
87.5074
87.5091
87.5109
87.5127
87.5146
87.5164
87.5183
87.5202
87.5222
87.5242
87.5262
87.5282
87.5303
87.5324
87.5346
87.5367
87.5389
87.5412
87.5435
87.6342
87.425
87.4261
87.4273
87.4285
87.4297
87.431
87.4322
87.4335
87.4348
87.4361
87.4374
87.4388
87.4402
87.4415
87.443
87.4444
87.4459
87.4473
87.4488
87.4504
87.4519
87.5426
87.3461
87.3467
87.3473
87.348
87.3486
87.3493
87.35
87.3506
87.3513
87.352
87.3527
87.3535
87.3542
87.3549
87.3557
87.3565
87.3573
87.358
87.3589
87.3597
87.3605
87.4511
87.2642
87.2642
87.2643
87.2643
87.2644
87.2645
87.2645
87.2646
87.2647
87.2647
87.2648
87.2649
87.2649
87.265
87.2651
87.2651
87.2652
87.2653
87.2654
87.2655
87.2655
87.3562
)
;

boundaryField
{
    inlet
    {
        type            calculated;
        value           uniform 0;
    }
    outlet2
    {
        type            calculated;
        value           uniform 0;
    }
    outlet1
    {
        type            calculated;
        value           uniform 0;
    }
    wall
    {
        type            calculated;
        value           uniform 0;
    }
    symmetryBottom
    {
        type            symmetry;
    }
    symmetryZ0
    {
        type            symmetry;
    }
    symmetryZ05
    {
        type            symmetry;
    }
}


// ************************************************************************* //
