/*--------------------------------*- C++ -*----------------------------------*\
| =========                 |                                                 |
| \\      /  F ield         | OpenFOAM: The Open Source CFD Toolbox           |
|  \\    /   O peration     | Version:  2412                                  |
|   \\  /    A nd           | Website:  www.openfoam.com                      |
|    \\/     M anipulation  |                                                 |
\*---------------------------------------------------------------------------*/
FoamFile
{
    version     2.0;
    format      ascii;
    arch        "LSB;label=32;scalar=64";
    class       volScalarField;
    location    "9.96134e-07";
    object      E_dof1;
}
// * * * * * * * * * * * * * * * * * * * * * * * * * * * * * * * * * * * * * //

dimensions      [0 0 0 0 0 0 0];

internalField   nonuniform List<scalar> 
625
(
42.7457
-2.11047e-06
-0.0222906
42.7463
-2.11043e-06
-0.00349912
42.7464
-2.11047e-06
-0.00980667
42.7464
-2.11047e-06
-0.00978328
42.7464
-2.11047e-06
-0.00978334
42.7464
-2.11047e-06
-0.00978334
42.7464
-2.11047e-06
-0.00978334
42.7464
-2.11047e-06
-0.00978334
42.7464
-2.11047e-06
-0.00978334
42.7464
-2.11047e-06
-0.00978334
42.7464
-2.11047e-06
-0.00978334
42.7464
-2.11047e-06
-0.00978334
42.7464
-2.11047e-06
-0.00978334
42.7464
-2.11047e-06
-0.00978334
42.7464
-2.11047e-06
-0.00978334
42.7464
-2.11047e-06
-0.00978334
42.7464
-2.11047e-06
-0.00978334
42.7464
-2.11047e-06
-0.00978334
42.7464
-2.11047e-06
-0.00978334
42.7464
-2.11047e-06
-0.00978334
42.7464
-2.11047e-06
-0.00978334
42.7464
-2.11047e-06
-0.00978334
42.7464
-2.11047e-06
-0.00978289
42.7464
-2.11047e-06
-0.00997822
42.7563
-2.1114e-06
-0.000876062
-0.104197
-0.104914
-0.105641
-0.106378
-0.107126
-0.107884
-0.108653
-0.109433
-0.110224
-0.111027
-0.111841
-0.112668
-0.113507
-0.114358
-0.115223
-0.1161
-0.116991
-0.117896
-0.118815
-0.119748
-0.120696
-7.35183
-0.106585
-0.107335
-0.108096
-0.108868
-0.109651
-0.110445
-0.111251
-0.112068
-0.112898
-0.11374
-0.114595
-0.115463
-0.116344
-0.117239
-0.118147
-0.11907
-0.120007
-0.120959
-0.121926
-0.122909
-0.123908
0.222679
-0.106498
-0.107247
-0.108006
-0.108777
-0.109559
-0.110351
-0.111156
-0.111972
-0.112801
-0.113641
-0.114495
-0.115361
-0.11624
-0.117133
-0.11804
-0.118961
-0.119897
-0.120847
-0.121812
-0.122793
-0.12379
0.114113
-0.106411
-0.107159
-0.107918
-0.108687
-0.109467
-0.110259
-0.111062
-0.111877
-0.112704
-0.113543
-0.114395
-0.11526
-0.116138
-0.117029
-0.117935
-0.118854
-0.119788
-0.120736
-0.1217
-0.122679
-0.123674
0.114946
-0.106325
-0.107072
-0.107829
-0.108597
-0.109376
-0.110167
-0.110968
-0.111782
-0.112608
-0.113446
-0.114296
-0.115159
-0.116036
-0.116925
-0.117829
-0.118747
-0.119679
-0.120626
-0.121588
-0.122565
-0.123558
0.115832
-0.106239
-0.106985
-0.107741
-0.108507
-0.109285
-0.110074
-0.110875
-0.111687
-0.112511
-0.113348
-0.114197
-0.115058
-0.115933
-0.116822
-0.117724
-0.11864
-0.11957
-0.120515
-0.121475
-0.122451
-0.123442
0.116735
-0.106153
-0.106898
-0.107652
-0.108418
-0.109194
-0.109982
-0.110781
-0.111592
-0.112415
-0.11325
-0.114097
-0.114958
-0.115831
-0.116718
-0.117618
-0.118533
-0.119461
-0.120405
-0.121363
-0.122337
-0.123327
0.11766
-0.106067
-0.10681
-0.107564
-0.108328
-0.109103
-0.10989
-0.110688
-0.111497
-0.112319
-0.113152
-0.113998
-0.114857
-0.115729
-0.116614
-0.117513
-0.118426
-0.119353
-0.120294
-0.121251
-0.122223
-0.123211
0.118609
-0.105981
-0.106723
-0.107476
-0.108239
-0.109013
-0.109798
-0.110594
-0.111402
-0.112222
-0.113055
-0.113899
-0.114756
-0.115627
-0.11651
-0.117408
-0.118319
-0.119244
-0.120184
-0.121139
-0.122109
-0.123095
0.119582
-0.105896
-0.106636
-0.107387
-0.108149
-0.108922
-0.109706
-0.110501
-0.111308
-0.112126
-0.112957
-0.1138
-0.114656
-0.115525
-0.116407
-0.117302
-0.118212
-0.119136
-0.120074
-0.121027
-0.121996
-0.12298
0.120561
-0.105808
-0.106548
-0.107298
-0.108058
-0.10883
-0.109612
-0.110406
-0.111211
-0.112028
-0.112858
-0.1137
-0.114554
-0.115421
-0.116302
-0.117196
-0.118104
-0.119026
-0.119962
-0.120914
-0.12188
-0.122863
0.120896
-0.105721
-0.10646
-0.107208
-0.107967
-0.108738
-0.109519
-0.110311
-0.111115
-0.111931
-0.112759
-0.113599
-0.114452
-0.115318
-0.116197
-0.117089
-0.117995
-0.118916
-0.11985
-0.1208
-0.121765
-0.122745
0.121182
-0.105634
-0.106371
-0.107119
-0.107877
-0.108645
-0.109425
-0.110216
-0.111019
-0.111833
-0.11266
-0.113499
-0.11435
-0.115214
-0.116092
-0.116982
-0.117887
-0.118806
-0.119739
-0.120687
-0.12165
-0.122628
0.121476
-0.105547
-0.106283
-0.107029
-0.107786
-0.108554
-0.109332
-0.110122
-0.110923
-0.111736
-0.112561
-0.113398
-0.114248
-0.115111
-0.115987
-0.116876
-0.117779
-0.118696
-0.119627
-0.120573
-0.121535
-0.122511
0.121779
-0.10546
-0.106195
-0.10694
-0.107695
-0.108462
-0.109239
-0.110027
-0.110827
-0.111639
-0.112462
-0.113298
-0.114146
-0.115008
-0.115882
-0.116769
-0.117671
-0.118586
-0.119516
-0.12046
-0.12142
-0.122394
0.122092
-0.105373
-0.106107
-0.106851
-0.107605
-0.10837
-0.109146
-0.109933
-0.110731
-0.111541
-0.112364
-0.113198
-0.114045
-0.114904
-0.115777
-0.116663
-0.117563
-0.118476
-0.119404
-0.120347
-0.121305
-0.122278
0.122414
-0.105287
-0.106019
-0.106761
-0.107514
-0.108278
-0.109053
-0.109838
-0.110635
-0.111444
-0.112265
-0.113098
-0.113943
-0.114801
-0.115672
-0.116557
-0.117455
-0.118367
-0.119293
-0.120234
-0.12119
-0.122161
0.122745
-0.1052
-0.105931
-0.106672
-0.107424
-0.108186
-0.108959
-0.109744
-0.11054
-0.111347
-0.112166
-0.112998
-0.113842
-0.114698
-0.115568
-0.11645
-0.117347
-0.118257
-0.119182
-0.120121
-0.121075
-0.122044
0.123086
-0.105113
-0.105843
-0.106583
-0.107334
-0.108095
-0.108867
-0.10965
-0.110444
-0.11125
-0.112068
-0.112898
-0.11374
-0.114595
-0.115463
-0.116344
-0.117239
-0.118148
-0.119071
-0.120008
-0.12096
-0.121928
0.123436
-0.105027
-0.105755
-0.106494
-0.107243
-0.108003
-0.108774
-0.109555
-0.110348
-0.111153
-0.111969
-0.112798
-0.113639
-0.114492
-0.115359
-0.116238
-0.117131
-0.118038
-0.11896
-0.119895
-0.120846
-0.121811
0.123794
-0.10494
-0.105667
-0.106405
-0.107153
-0.107911
-0.108681
-0.109461
-0.110253
-0.111056
-0.111871
-0.112698
-0.113537
-0.114389
-0.115254
-0.116132
-0.117024
-0.117929
-0.118848
-0.119782
-0.120731
-0.121695
0.124162
-0.104854
-0.10558
-0.106316
-0.107063
-0.10782
-0.108588
-0.109367
-0.110157
-0.110959
-0.111773
-0.112598
-0.113436
-0.114287
-0.11515
-0.116026
-0.116916
-0.11782
-0.118738
-0.11967
-0.120617
-0.121579
0.124539
-0.104767
-0.105492
-0.106227
-0.106973
-0.107729
-0.108495
-0.109273
-0.110062
-0.110862
-0.111675
-0.112499
-0.113335
-0.114184
-0.115046
-0.115921
-0.116809
-0.117711
-0.118627
-0.119557
-0.120502
-0.121462
0.124925
-0.104681
-0.105405
-0.106138
-0.106883
-0.107637
-0.108403
-0.109179
-0.109967
-0.110766
-0.111577
-0.112399
-0.113234
-0.114082
-0.114942
-0.115815
-0.116701
-0.117602
-0.118516
-0.119445
-0.120388
-0.121346
0.125276
-0.104616
-0.105339
-0.106072
-0.106815
-0.107569
-0.108333
-0.109108
-0.109895
-0.110693
-0.111503
-0.112324
-0.113158
-0.114004
-0.114863
-0.115735
-0.116621
-0.11752
-0.118433
-0.11936
-0.120302
-0.121259
0.135983
)
;

boundaryField
{
    inlet
    {
        type            calculated;
        value           uniform 0;
    }
    outlet2
    {
        type            calculated;
        value           uniform 0;
    }
    outlet1
    {
        type            calculated;
        value           uniform 0;
    }
    wall
    {
        type            calculated;
        value           uniform 0;
    }
    symmetryBottom
    {
        type            symmetry;
    }
    symmetryZ0
    {
        type            symmetry;
    }
    symmetryZ05
    {
        type            symmetry;
    }
}


// ************************************************************************* //
