/*--------------------------------*- C++ -*----------------------------------*\
| =========                 |                                                 |
| \\      /  F ield         | OpenFOAM: The Open Source CFD Toolbox           |
|  \\    /   O peration     | Version:  2412                                  |
|   \\  /    A nd           | Website:  www.openfoam.com                      |
|    \\/     M anipulation  |                                                 |
\*---------------------------------------------------------------------------*/
FoamFile
{
    version     2.0;
    format      ascii;
    arch        "LSB;label=32;scalar=64";
    class       volScalarField;
    location    "9.96134e-07";
    object      E_dof0;
}
// * * * * * * * * * * * * * * * * * * * * * * * * * * * * * * * * * * * * * //

dimensions      [0 0 0 0 0 0 0];

internalField   nonuniform List<scalar> 
625
(
101.034
84.7006
84.7007
101.037
84.7028
84.7028
101.034
84.7007
84.7007
101.034
84.7007
84.7007
101.034
84.7007
84.7007
101.034
84.7007
84.7007
101.034
84.7007
84.7007
101.034
84.7007
84.7007
101.034
84.7007
84.7007
101.034
84.7007
84.7007
101.034
84.7007
84.7007
101.034
84.7007
84.7007
101.034
84.7007
84.7007
101.034
84.7007
84.7007
101.034
84.7007
84.7007
101.034
84.7007
84.7007
101.034
84.7007
84.7007
101.034
84.7007
84.7007
101.034
84.7007
84.7007
101.034
84.7007
84.7007
101.034
84.7007
84.7007
101.034
84.7007
84.7007
101.034
84.7007
84.7007
101.034
84.7007
84.7008
101.035
84.6973
84.6974
87.0303
87.029
87.0277
87.0264
87.0251
87.0237
87.0224
87.021
87.0196
87.0182
87.0168
87.0154
87.0139
87.0124
87.011
87.0095
87.008
87.0064
87.0049
87.0033
87.0017
87.0927
89.1247
89.1379
89.1513
89.1649
89.1787
89.1927
89.2069
89.2213
89.236
89.2508
89.2659
89.2812
89.2967
89.3125
89.3285
89.3448
89.3614
89.3782
89.3952
89.4126
89.4302
89.5236
89.0172
89.0295
89.042
89.0546
89.0674
89.0804
89.0936
89.1069
89.1205
89.1343
89.1483
89.1624
89.1768
89.1914
89.2063
89.2214
89.2367
89.2522
89.268
89.2841
89.3004
89.3936
88.9369
88.9486
88.9605
88.9726
88.9848
88.9972
89.0097
89.0225
89.0354
89.0486
89.0619
89.0754
89.0892
89.1031
89.1173
89.1316
89.1462
89.1611
89.1761
89.1915
89.207
89.3002
88.8567
88.8678
88.8791
88.8906
88.9022
88.914
88.926
88.9381
88.9504
88.9629
88.9756
88.9885
89.0016
89.0149
89.0283
89.042
89.0559
89.07
89.0844
89.0989
89.1137
89.2068
88.7765
88.7871
88.7978
88.8087
88.8197
88.8309
88.8423
88.8538
88.8655
88.8774
88.8894
88.9017
88.9141
88.9267
88.9395
88.9525
88.9657
88.9791
88.9927
89.0065
89.0206
89.1135
88.6963
88.7064
88.7165
88.7268
88.7373
88.7479
88.7587
88.7696
88.7806
88.7919
88.8033
88.8149
88.8266
88.8386
88.8507
88.863
88.8755
88.8882
88.9011
88.9142
88.9275
89.0203
88.6163
88.6257
88.6353
88.645
88.6549
88.6649
88.6751
88.6854
88.6958
88.7065
88.7172
88.7282
88.7393
88.7505
88.762
88.7736
88.7854
88.7973
88.8095
88.8219
88.8344
88.9272
88.5362
88.5451
88.5542
88.5633
88.5726
88.582
88.5916
88.6013
88.6111
88.6211
88.6312
88.6415
88.652
88.6626
88.6733
88.6842
88.6953
88.7066
88.7181
88.7297
88.7415
88.8342
88.4563
88.4646
88.4731
88.4817
88.4904
88.4992
88.5082
88.5173
88.5265
88.5358
88.5453
88.555
88.5647
88.5747
88.5848
88.595
88.6054
88.616
88.6267
88.6376
88.6487
88.7413
88.3766
88.3844
88.3923
88.4003
88.4084
88.4166
88.425
88.4335
88.4421
88.4508
88.4597
88.4687
88.4778
88.4871
88.4965
88.506
88.5157
88.5256
88.5356
88.5458
88.5561
88.6487
88.2969
88.3042
88.3115
88.3189
88.3265
88.3341
88.3419
88.3498
88.3578
88.3659
88.3741
88.3824
88.3909
88.3995
88.4083
88.4171
88.4261
88.4353
88.4446
88.454
88.4636
88.5561
88.2174
88.224
88.2308
88.2377
88.2446
88.2517
88.2589
88.2661
88.2735
88.281
88.2886
88.2963
88.3041
88.3121
88.3201
88.3283
88.3366
88.3451
88.3537
88.3624
88.3712
88.4636
88.1379
88.144
88.1502
88.1565
88.1629
88.1693
88.1759
88.1826
88.1893
88.1962
88.2032
88.2102
88.2174
88.2247
88.2321
88.2396
88.2472
88.255
88.2628
88.2708
88.2789
88.3712
88.0584
88.064
88.0696
88.0753
88.0811
88.087
88.093
88.0991
88.1052
88.1115
88.1178
88.1242
88.1307
88.1374
88.1441
88.1509
88.1579
88.1649
88.1721
88.1793
88.1867
88.2789
87.979
87.984
87.9891
87.9943
87.9995
88.0048
88.0102
88.0156
88.0212
88.0268
88.0325
88.0383
88.0442
88.0501
88.0562
88.0624
88.0686
88.075
88.0814
88.088
88.0946
88.1867
87.8997
87.9042
87.9087
87.9133
87.9179
87.9226
87.9274
87.9323
87.9372
87.9422
87.9473
87.9525
87.9577
87.963
87.9684
87.9739
87.9794
87.9851
87.9908
87.9966
88.0026
88.0946
87.8204
87.8243
87.8283
87.8323
87.8364
87.8405
87.8447
87.849
87.8533
87.8577
87.8622
87.8667
87.8713
87.8759
87.8806
87.8854
87.8903
87.8953
87.9003
87.9054
87.9106
88.0025
87.7412
87.7446
87.748
87.7515
87.755
87.7585
87.7621
87.7658
87.7695
87.7733
87.7771
87.781
87.7849
87.7889
87.793
87.7971
87.8013
87.8056
87.8099
87.8143
87.8187
87.9106
87.6621
87.6649
87.6678
87.6707
87.6736
87.6766
87.6796
87.6826
87.6857
87.6889
87.6921
87.6954
87.6986
87.702
87.7054
87.7088
87.7124
87.7159
87.7195
87.7232
87.7269
87.8187
87.583
87.5853
87.5876
87.5899
87.5923
87.5947
87.5971
87.5996
87.6021
87.6046
87.6072
87.6098
87.6125
87.6152
87.6179
87.6207
87.6235
87.6264
87.6293
87.6322
87.6352
87.7269
87.504
87.5057
87.5075
87.5092
87.511
87.5129
87.5147
87.5166
87.5185
87.5204
87.5223
87.5243
87.5263
87.5284
87.5305
87.5326
87.5347
87.5369
87.5391
87.5413
87.5436
87.6352
87.4251
87.4263
87.4274
87.4286
87.4299
87.4311
87.4324
87.4336
87.4349
87.4362
87.4376
87.4389
87.4403
87.4417
87.4431
87.4445
87.446
87.4475
87.449
87.4505
87.4521
87.5436
87.3462
87.3468
87.3475
87.3481
87.3488
87.3494
87.3501
87.3508
87.3515
87.3522
87.3529
87.3536
87.3543
87.3551
87.3558
87.3566
87.3574
87.3582
87.359
87.3598
87.3607
87.4521
87.2643
87.2644
87.2644
87.2645
87.2645
87.2646
87.2647
87.2647
87.2648
87.2649
87.2649
87.265
87.2651
87.2651
87.2652
87.2653
87.2654
87.2654
87.2655
87.2656
87.2657
87.3572
)
;

boundaryField
{
    inlet
    {
        type            calculated;
        value           uniform 99.4306;
    }
    outlet2
    {
        type            calculated;
        value           uniform 99.4306;
    }
    outlet1
    {
        type            calculated;
        value           uniform 99.4306;
    }
    wall
    {
        type            calculated;
        value           uniform 99.4306;
    }
    symmetryBottom
    {
        type            symmetry;
    }
    symmetryZ0
    {
        type            symmetry;
    }
    symmetryZ05
    {
        type            symmetry;
    }
}


// ************************************************************************* //
