/*--------------------------------*- C++ -*----------------------------------*\
| =========                 |                                                 |
| \\      /  F ield         | OpenFOAM: The Open Source CFD Toolbox           |
|  \\    /   O peration     | Version:  2412                                  |
|   \\  /    A nd           | Website:  www.openfoam.com                      |
|    \\/     M anipulation  |                                                 |
\*---------------------------------------------------------------------------*/
FoamFile
{
    version     2.0;
    format      ascii;
    arch        "LSB;label=32;scalar=64";
    class       volScalarField;
    location    "9.96134e-07";
    object      E_dof3;
}
// * * * * * * * * * * * * * * * * * * * * * * * * * * * * * * * * * * * * * //

dimensions      [0 0 0 0 0 0 0];

internalField   nonuniform List<scalar> 
625
(
0.767561
0.683468
0.590432
0.767576
0.683482
0.590445
0.767576
0.683482
0.590445
0.767576
0.683482
0.590445
0.767576
0.683482
0.590445
0.767576
0.683482
0.590445
0.767576
0.683482
0.590445
0.767576
0.683482
0.590445
0.767576
0.683482
0.590445
0.767576
0.683482
0.590445
0.767576
0.683482
0.590445
0.767576
0.683482
0.590445
0.767576
0.683482
0.590445
0.767576
0.683482
0.590445
0.767576
0.683482
0.590445
0.767576
0.683482
0.590445
0.767576
0.683482
0.590445
0.767576
0.683482
0.590445
0.767576
0.683482
0.590445
0.767576
0.683482
0.590445
0.767576
0.683482
0.590445
0.767576
0.683482
0.590445
0.767576
0.683482
0.590444
0.767577
0.683483
0.589695
0.767766
0.683634
0.682525
0.702256
0.702253
0.70225
0.702247
0.702244
0.702241
0.702238
0.702235
0.702232
0.702229
0.702225
0.702222
0.702219
0.702215
0.702212
0.702208
0.702205
0.702201
0.702198
0.702194
0.70219
0.740109
0.7182
0.718309
0.718419
0.71853
0.718643
0.718758
0.718874
0.718992
0.719112
0.719234
0.719357
0.719482
0.71961
0.719739
0.71987
0.720003
0.720138
0.720275
0.720415
0.720556
0.7207
0.759799
0.717627
0.717732
0.717838
0.717945
0.718054
0.718164
0.718276
0.71839
0.718505
0.718622
0.718741
0.718862
0.718984
0.719108
0.719235
0.719363
0.719493
0.719625
0.719759
0.719896
0.720034
0.75908
0.717055
0.717156
0.717257
0.717361
0.717465
0.717571
0.717679
0.717788
0.717899
0.718012
0.718126
0.718242
0.71836
0.718479
0.7186
0.718723
0.718849
0.718976
0.719105
0.719236
0.719369
0.758369
0.716484
0.71658
0.716677
0.716777
0.716877
0.716979
0.717082
0.717187
0.717294
0.717402
0.717511
0.717622
0.717735
0.71785
0.717967
0.718085
0.718205
0.718327
0.718451
0.718577
0.718704
0.757658
0.715912
0.716004
0.716098
0.716193
0.716289
0.716387
0.716486
0.716586
0.716688
0.716792
0.716897
0.717004
0.717112
0.717222
0.717333
0.717447
0.717562
0.717678
0.717797
0.717918
0.71804
0.756948
0.715341
0.715429
0.715519
0.71561
0.715702
0.715795
0.71589
0.715986
0.716084
0.716183
0.716283
0.716385
0.716489
0.716594
0.7167
0.716809
0.716919
0.717031
0.717144
0.71726
0.717377
0.756238
0.71477
0.714855
0.71494
0.715027
0.715115
0.715204
0.715294
0.715386
0.715479
0.715574
0.71567
0.715767
0.715866
0.715966
0.716068
0.716171
0.716277
0.716383
0.716492
0.716602
0.716714
0.755529
0.7142
0.71428
0.714362
0.714444
0.714528
0.714613
0.714699
0.714787
0.714875
0.714965
0.715057
0.715149
0.715244
0.715339
0.715436
0.715535
0.715635
0.715736
0.71584
0.715945
0.716051
0.75482
0.71363
0.713706
0.713783
0.713862
0.713942
0.714022
0.714104
0.714187
0.714271
0.714357
0.714444
0.714532
0.714621
0.714712
0.714804
0.714898
0.714993
0.71509
0.715188
0.715287
0.715389
0.754111
0.71305
0.713122
0.713195
0.71327
0.713345
0.713421
0.713499
0.713577
0.713657
0.713738
0.71382
0.713904
0.713989
0.714075
0.714162
0.71425
0.71434
0.714432
0.714525
0.714619
0.714715
0.753393
0.71247
0.712538
0.712607
0.712678
0.712749
0.712821
0.712894
0.712968
0.713044
0.71312
0.713197
0.713276
0.713356
0.713437
0.71352
0.713603
0.713688
0.713775
0.713862
0.713951
0.714042
0.752674
0.711891
0.711955
0.71202
0.712086
0.712153
0.712221
0.712289
0.712359
0.71243
0.712502
0.712575
0.712649
0.712724
0.712801
0.712878
0.712957
0.713037
0.713118
0.7132
0.713284
0.713369
0.751956
0.711312
0.711372
0.711433
0.711495
0.711557
0.711621
0.711685
0.711751
0.711817
0.711885
0.711953
0.712022
0.712093
0.712164
0.712237
0.71231
0.712385
0.712461
0.712539
0.712617
0.712697
0.751239
0.710733
0.710789
0.710846
0.710904
0.710962
0.711022
0.711082
0.711143
0.711205
0.711268
0.711331
0.711396
0.711462
0.711528
0.711596
0.711665
0.711735
0.711806
0.711878
0.711951
0.712025
0.750522
0.710155
0.710207
0.71026
0.710314
0.710368
0.710423
0.710479
0.710535
0.710593
0.710651
0.71071
0.71077
0.710831
0.710893
0.710956
0.71102
0.711084
0.71115
0.711217
0.711285
0.711354
0.749806
0.709578
0.709626
0.709674
0.709723
0.709774
0.709824
0.709876
0.709928
0.709981
0.710035
0.710089
0.710145
0.710201
0.710258
0.710316
0.710375
0.710435
0.710495
0.710557
0.71062
0.710683
0.74909
0.709
0.709044
0.709089
0.709134
0.70918
0.709226
0.709273
0.709321
0.70937
0.709419
0.709469
0.70952
0.709571
0.709624
0.709677
0.709731
0.709785
0.709841
0.709897
0.709955
0.710013
0.748375
0.708423
0.708463
0.708504
0.708545
0.708586
0.708629
0.708671
0.708715
0.708759
0.708804
0.708849
0.708895
0.708942
0.70899
0.709038
0.709087
0.709137
0.709187
0.709238
0.70929
0.709343
0.747661
0.707847
0.707882
0.707919
0.707956
0.707993
0.708031
0.70807
0.708109
0.708149
0.708189
0.70823
0.708271
0.708313
0.708356
0.708399
0.708443
0.708488
0.708534
0.70858
0.708627
0.708674
0.746947
0.70727
0.707302
0.707335
0.707367
0.707401
0.707434
0.707469
0.707503
0.707539
0.707574
0.707611
0.707648
0.707685
0.707723
0.707761
0.707801
0.70784
0.707881
0.707922
0.707963
0.708006
0.746233
0.706694
0.706722
0.706751
0.706779
0.706808
0.706838
0.706868
0.706898
0.706929
0.70696
0.706992
0.707024
0.707057
0.70709
0.707124
0.707158
0.707193
0.707228
0.707264
0.707301
0.707338
0.745521
0.706119
0.706143
0.706167
0.706192
0.706217
0.706242
0.706268
0.706294
0.70632
0.706347
0.706374
0.706402
0.70643
0.706458
0.706487
0.706516
0.706546
0.706576
0.706607
0.706638
0.70667
0.744808
0.705544
0.705564
0.705584
0.705605
0.705626
0.705647
0.705668
0.70569
0.705712
0.705734
0.705757
0.70578
0.705803
0.705827
0.705851
0.705875
0.7059
0.705925
0.705951
0.705977
0.706004
0.744097
0.705131
0.705148
0.705165
0.705183
0.705201
0.705219
0.705237
0.705256
0.705274
0.705294
0.705313
0.705333
0.705353
0.705373
0.705394
0.705415
0.705436
0.705458
0.705479
0.705502
0.705524
0.743562
)
;

boundaryField
{
    inlet
    {
        type            calculated;
        value           uniform 0;
    }
    outlet2
    {
        type            calculated;
        value           uniform 0;
    }
    outlet1
    {
        type            calculated;
        value           uniform 0;
    }
    wall
    {
        type            calculated;
        value           uniform 0;
    }
    symmetryBottom
    {
        type            symmetry;
    }
    symmetryZ0
    {
        type            symmetry;
    }
    symmetryZ05
    {
        type            symmetry;
    }
}


// ************************************************************************* //
