/*--------------------------------*- C++ -*----------------------------------*\
| =========                 |                                                 |
| \\      /  F ield         | OpenFOAM: The Open Source CFD Toolbox           |
|  \\    /   O peration     | Version:  2412                                  |
|   \\  /    A nd           | Website:  www.openfoam.com                      |
|    \\/     M anipulation  |                                                 |
\*---------------------------------------------------------------------------*/
FoamFile
{
    version     2.0;
    format      ascii;
    arch        "LSB;label=32;scalar=64";
    class       volScalarField;
    location    "9.96134e-07";
    object      E_dof2;
}
// * * * * * * * * * * * * * * * * * * * * * * * * * * * * * * * * * * * * * //

dimensions      [0 0 0 0 0 0 0];

internalField   nonuniform List<scalar> 
625
(
0.0119069
0.0222623
-0.000116206
-0.00880442
0.00322513
-0.000491127
-0.0019034
0.0095319
-0.000490477
-0.00192863
0.00950853
-0.000490479
-0.00192857
0.00950858
-0.000490479
-0.00192857
0.00950858
-0.000490479
-0.00192857
0.00950858
-0.000490479
-0.00192857
0.00950858
-0.000490479
-0.00192857
0.00950858
-0.000490479
-0.00192857
0.00950858
-0.000490479
-0.00192857
0.00950858
-0.000490479
-0.00192857
0.00950858
-0.000490479
-0.00192857
0.00950858
-0.000490479
-0.00192857
0.00950858
-0.000490479
-0.00192857
0.00950858
-0.000490479
-0.00192857
0.00950858
-0.000490479
-0.00192857
0.00950858
-0.000490479
-0.00192857
0.00950858
-0.000490479
-0.00192857
0.00950858
-0.000490479
-0.00192857
0.00950858
-0.000490479
-0.00192857
0.00950858
-0.000490479
-0.00192857
0.00950858
-0.000490478
-0.00192856
0.00950852
-0.000489549
-0.00193111
0.00954556
0.000444562
-0.000666787
-0.000706916
-0.000895739
6.34847
6.39186
6.43585
6.48045
6.52567
6.57152
6.61802
6.66519
6.71303
6.76156
6.8108
6.86076
6.91146
6.96291
7.01513
7.06814
7.12195
7.17659
7.23207
7.28842
7.34565
3.34748e-05
-0.177178
-0.179017
-0.18089
-0.182799
-0.184743
-0.186725
-0.188744
-0.190803
-0.192903
-0.195043
-0.197227
-0.199454
-0.201726
-0.204044
-0.20641
-0.208825
-0.21129
-0.213807
-0.216378
-0.219004
-0.221687
-0.000575631
-0.0968301
-0.0975378
-0.0982558
-0.0989845
-0.0997241
-0.100475
-0.101237
-0.10201
-0.102796
-0.103594
-0.104404
-0.105227
-0.106062
-0.106912
-0.107775
-0.108651
-0.109543
-0.110449
-0.11137
-0.112306
-0.113258
-0.000583781
-0.0976312
-0.0983412
-0.0990617
-0.0997927
-0.100535
-0.101287
-0.102052
-0.102828
-0.103615
-0.104415
-0.105227
-0.106052
-0.10689
-0.107741
-0.108606
-0.109485
-0.110378
-0.111285
-0.112208
-0.113146
-0.114099
-0.00058325
-0.0984581
-0.0991715
-0.0998952
-0.10063
-0.101375
-0.102131
-0.102899
-0.103678
-0.104469
-0.105272
-0.106088
-0.106916
-0.107757
-0.108612
-0.10948
-0.110362
-0.111259
-0.11217
-0.113096
-0.114037
-0.114995
-0.000582804
-0.0992986
-0.100015
-0.100743
-0.10148
-0.102229
-0.102989
-0.10376
-0.104543
-0.105337
-0.106144
-0.106963
-0.107795
-0.10864
-0.109498
-0.11037
-0.111256
-0.112156
-0.113071
-0.114
-0.114945
-0.115906
-0.000582359
-0.100157
-0.100877
-0.101608
-0.102349
-0.103102
-0.103865
-0.10464
-0.105427
-0.106225
-0.107036
-0.107859
-0.108695
-0.109543
-0.110405
-0.111281
-0.112171
-0.113075
-0.113993
-0.114927
-0.115876
-0.116841
-0.000581913
-0.101032
-0.101756
-0.102491
-0.103237
-0.103993
-0.104761
-0.105539
-0.10633
-0.107132
-0.107947
-0.108774
-0.109614
-0.110467
-0.111333
-0.112213
-0.113107
-0.114016
-0.114938
-0.115876
-0.11683
-0.117799
-0.000581468
-0.101925
-0.102653
-0.103392
-0.104142
-0.104903
-0.105674
-0.106458
-0.107252
-0.108059
-0.108878
-0.10971
-0.110554
-0.111412
-0.112282
-0.113167
-0.114065
-0.114978
-0.115906
-0.116848
-0.117806
-0.11878
-0.000581023
-0.102819
-0.103552
-0.104295
-0.10505
-0.105815
-0.106591
-0.107379
-0.108178
-0.10899
-0.109814
-0.11065
-0.111499
-0.112361
-0.113237
-0.114126
-0.115029
-0.115947
-0.11688
-0.117827
-0.11879
-0.119769
-0.000580334
-0.103178
-0.103912
-0.104656
-0.105411
-0.106176
-0.106953
-0.107742
-0.108542
-0.109354
-0.110178
-0.111014
-0.111864
-0.112727
-0.113602
-0.114492
-0.115396
-0.116314
-0.117247
-0.118195
-0.119158
-0.120137
-0.000580217
-0.103527
-0.10426
-0.105005
-0.10576
-0.106526
-0.107302
-0.108091
-0.108891
-0.109703
-0.110527
-0.111364
-0.112213
-0.113076
-0.113952
-0.114841
-0.115744
-0.116662
-0.117595
-0.118542
-0.119505
-0.120483
-0.000580611
-0.103882
-0.104616
-0.10536
-0.106116
-0.106882
-0.107659
-0.108448
-0.109248
-0.11006
-0.110884
-0.111721
-0.11257
-0.113433
-0.114308
-0.115198
-0.116101
-0.117019
-0.117951
-0.118898
-0.11986
-0.120839
-0.000580928
-0.104244
-0.104978
-0.105723
-0.106479
-0.107245
-0.108023
-0.108812
-0.109612
-0.110425
-0.111249
-0.112086
-0.112936
-0.113798
-0.114674
-0.115563
-0.116467
-0.117384
-0.118316
-0.119263
-0.120225
-0.121203
-0.000581245
-0.104613
-0.105348
-0.106093
-0.106849
-0.107616
-0.108394
-0.109183
-0.109984
-0.110797
-0.111622
-0.112459
-0.113309
-0.114172
-0.115048
-0.115937
-0.116841
-0.117758
-0.11869
-0.119637
-0.120599
-0.121577
-0.000581561
-0.104988
-0.105724
-0.10647
-0.107226
-0.107994
-0.108773
-0.109562
-0.110364
-0.111177
-0.112002
-0.11284
-0.11369
-0.114553
-0.11543
-0.116319
-0.117223
-0.118141
-0.119073
-0.12002
-0.120983
-0.121961
-0.000581877
-0.10537
-0.106106
-0.106853
-0.107611
-0.108379
-0.109158
-0.109949
-0.110751
-0.111565
-0.11239
-0.113229
-0.114079
-0.114943
-0.11582
-0.11671
-0.117614
-0.118532
-0.119465
-0.120412
-0.121375
-0.122353
-0.000582192
-0.105759
-0.106496
-0.107244
-0.108002
-0.108771
-0.109551
-0.110342
-0.111145
-0.111959
-0.112786
-0.113625
-0.114476
-0.115341
-0.116218
-0.117109
-0.118014
-0.118932
-0.119866
-0.120814
-0.121776
-0.122755
-0.000582506
-0.106154
-0.106892
-0.107641
-0.1084
-0.10917
-0.109951
-0.110743
-0.111547
-0.112362
-0.113189
-0.114029
-0.114881
-0.115746
-0.116625
-0.117516
-0.118422
-0.119341
-0.120275
-0.121223
-0.122187
-0.123166
-0.00058282
-0.106556
-0.107295
-0.108045
-0.108805
-0.109576
-0.110358
-0.111151
-0.111956
-0.112772
-0.1136
-0.114441
-0.115294
-0.11616
-0.117039
-0.117932
-0.118838
-0.119758
-0.120693
-0.121642
-0.122606
-0.123586
-0.000583132
-0.106965
-0.107705
-0.108456
-0.109217
-0.109989
-0.110772
-0.111566
-0.112372
-0.113189
-0.114019
-0.114861
-0.115715
-0.116582
-0.117462
-0.118355
-0.119262
-0.120184
-0.121119
-0.122069
-0.123035
-0.124015
-0.000583444
-0.10738
-0.108121
-0.108873
-0.109636
-0.110409
-0.111193
-0.111989
-0.112796
-0.113614
-0.114445
-0.115288
-0.116143
-0.117011
-0.117892
-0.118787
-0.119695
-0.120618
-0.121554
-0.122506
-0.123472
-0.124453
-0.000583754
-0.107801
-0.108544
-0.109297
-0.110061
-0.110836
-0.111621
-0.112418
-0.113226
-0.114047
-0.114878
-0.115723
-0.116579
-0.117449
-0.118331
-0.119227
-0.120137
-0.12106
-0.121998
-0.12295
-0.123918
-0.124901
-0.000584063
-0.108194
-0.108938
-0.109693
-0.110457
-0.111233
-0.112019
-0.112817
-0.113626
-0.114447
-0.11528
-0.116125
-0.116982
-0.117853
-0.118736
-0.119633
-0.120543
-0.121467
-0.122406
-0.123359
-0.124327
-0.125311
-0.000584411
-0.117913
-0.118724
-0.119546
-0.12038
-0.121225
-0.122082
-0.122951
-0.123833
-0.124728
-0.125635
-0.126556
-0.127491
-0.128439
-0.129402
-0.130379
-0.131371
-0.132378
-0.133401
-0.13444
-0.135495
-0.136567
-0.000596042
)
;

boundaryField
{
    inlet
    {
        type            calculated;
        value           uniform 0;
    }
    outlet2
    {
        type            calculated;
        value           uniform 0;
    }
    outlet1
    {
        type            calculated;
        value           uniform 0;
    }
    wall
    {
        type            calculated;
        value           uniform 0;
    }
    symmetryBottom
    {
        type            symmetry;
    }
    symmetryZ0
    {
        type            symmetry;
    }
    symmetryZ05
    {
        type            symmetry;
    }
}


// ************************************************************************* //
