/*--------------------------------*- C++ -*----------------------------------*\
| =========                 |                                                 |
| \\      /  F ield         | OpenFOAM: The Open Source CFD Toolbox           |
|  \\    /   O peration     | Version:  2412                                  |
|   \\  /    A nd           | Website:  www.openfoam.com                      |
|    \\/     M anipulation  |                                                 |
\*---------------------------------------------------------------------------*/
FoamFile
{
    version     2.0;
    format      ascii;
    arch        "LSB;label=32;scalar=64";
    class       volScalarField;
    location    "9.96134e-07";
    object      p;
}
// * * * * * * * * * * * * * * * * * * * * * * * * * * * * * * * * * * * * * //

dimensions      [0 0 0 0 0 0 0];

internalField   nonuniform List<scalar> 
625
(
1.18664
0.997004
0.997
1.18676
0.99711
0.99711
1.18672
0.997069
0.997069
1.18672
0.997069
0.997069
1.18672
0.997069
0.997069
1.18672
0.997069
0.997069
1.18672
0.997069
0.997069
1.18672
0.997069
0.997069
1.18672
0.997069
0.997069
1.18672
0.997069
0.997069
1.18672
0.997069
0.997069
1.18672
0.997069
0.997069
1.18672
0.997069
0.997069
1.18672
0.997069
0.997069
1.18672
0.997069
0.997069
1.18672
0.997069
0.997069
1.18672
0.997069
0.997069
1.18672
0.997069
0.997069
1.18672
0.997069
0.997069
1.18672
0.997069
0.997069
1.18672
0.997069
0.997069
1.18672
0.997069
0.997069
1.18672
0.997069
0.997069
1.18672
0.997069
0.997071
1.18673
0.997029
0.997031
1.23356
1.23536
1.23719
1.23906
1.24096
1.24289
1.24486
1.24687
1.24891
1.25098
1.2531
1.25525
1.25745
1.25969
1.26197
1.26429
1.26666
1.26908
1.27154
1.27405
1.27662
1.27791
1.04668
1.04681
1.04693
1.04706
1.04719
1.04732
1.04746
1.04759
1.04773
1.04787
1.04801
1.04815
1.0483
1.04844
1.04859
1.04874
1.04889
1.04905
1.0492
1.04936
1.04952
1.05062
1.04728
1.04743
1.04757
1.04772
1.04787
1.04802
1.04817
1.04833
1.04848
1.04864
1.04881
1.04897
1.04914
1.04931
1.04948
1.04966
1.04984
1.05002
1.0502
1.05039
1.05058
1.05167
1.04634
1.04647
1.04661
1.04675
1.04689
1.04704
1.04718
1.04733
1.04748
1.04763
1.04779
1.04795
1.04811
1.04827
1.04843
1.0486
1.04877
1.04894
1.04912
1.04929
1.04947
1.05057
1.0454
1.04553
1.04566
1.0458
1.04593
1.04607
1.04621
1.04635
1.04649
1.04664
1.04679
1.04693
1.04709
1.04724
1.0474
1.04756
1.04772
1.04788
1.04805
1.04822
1.04839
1.04948
1.04447
1.04459
1.04472
1.04484
1.04497
1.0451
1.04524
1.04537
1.0455
1.04564
1.04578
1.04592
1.04607
1.04622
1.04636
1.04651
1.04667
1.04682
1.04698
1.04714
1.04731
1.0484
1.04354
1.04366
1.04377
1.04389
1.04401
1.04414
1.04426
1.04439
1.04452
1.04465
1.04478
1.04492
1.04505
1.04519
1.04533
1.04547
1.04562
1.04577
1.04592
1.04607
1.04622
1.04732
1.04261
1.04272
1.04283
1.04294
1.04306
1.04317
1.04329
1.04341
1.04353
1.04365
1.04378
1.04391
1.04404
1.04417
1.0443
1.04443
1.04457
1.04471
1.04485
1.045
1.04514
1.04623
1.04168
1.04178
1.04188
1.04199
1.0421
1.04221
1.04232
1.04243
1.04255
1.04266
1.04278
1.0429
1.04302
1.04314
1.04327
1.0434
1.04352
1.04365
1.04379
1.04392
1.04406
1.04515
1.04075
1.04084
1.04094
1.04104
1.04114
1.04125
1.04135
1.04145
1.04156
1.04167
1.04178
1.04189
1.04201
1.04212
1.04224
1.04236
1.04248
1.0426
1.04272
1.04285
1.04298
1.04407
1.03982
1.03991
1.04
1.04009
1.04019
1.04028
1.04038
1.04048
1.04058
1.04068
1.04078
1.04089
1.04099
1.0411
1.04121
1.04132
1.04144
1.04155
1.04167
1.04178
1.0419
1.04299
1.03889
1.03898
1.03906
1.03915
1.03924
1.03933
1.03942
1.03951
1.0396
1.03969
1.03979
1.03989
1.03998
1.04008
1.04019
1.04029
1.04039
1.0405
1.04061
1.04072
1.04083
1.04192
1.03797
1.03805
1.03812
1.0382
1.03828
1.03837
1.03845
1.03853
1.03862
1.03871
1.03879
1.03888
1.03897
1.03907
1.03916
1.03926
1.03935
1.03945
1.03955
1.03965
1.03975
1.04084
1.03704
1.03711
1.03719
1.03726
1.03733
1.03741
1.03748
1.03756
1.03764
1.03772
1.0378
1.03788
1.03797
1.03805
1.03814
1.03822
1.03831
1.0384
1.03849
1.03859
1.03868
1.03977
1.03612
1.03618
1.03625
1.03632
1.03638
1.03645
1.03652
1.03659
1.03666
1.03673
1.03681
1.03688
1.03696
1.03704
1.03711
1.03719
1.03727
1.03736
1.03744
1.03752
1.03761
1.03869
1.0352
1.03525
1.03531
1.03537
1.03543
1.0355
1.03556
1.03562
1.03569
1.03575
1.03582
1.03588
1.03595
1.03602
1.03609
1.03616
1.03624
1.03631
1.03638
1.03646
1.03654
1.03762
1.03427
1.03433
1.03438
1.03443
1.03448
1.03454
1.0346
1.03465
1.03471
1.03477
1.03483
1.03489
1.03495
1.03501
1.03507
1.03513
1.0352
1.03526
1.03533
1.0354
1.03547
1.03655
1.03335
1.0334
1.03344
1.03349
1.03354
1.03358
1.03363
1.03368
1.03373
1.03378
1.03384
1.03389
1.03394
1.03399
1.03405
1.03411
1.03416
1.03422
1.03428
1.03434
1.0344
1.03548
1.03243
1.03247
1.03251
1.03255
1.03259
1.03263
1.03267
1.03272
1.03276
1.0328
1.03285
1.03289
1.03294
1.03298
1.03303
1.03308
1.03313
1.03318
1.03323
1.03328
1.03333
1.03441
1.03151
1.03154
1.03158
1.03161
1.03164
1.03168
1.03171
1.03175
1.03178
1.03182
1.03186
1.0319
1.03193
1.03197
1.03201
1.03205
1.03209
1.03213
1.03218
1.03222
1.03226
1.03334
1.03059
1.03062
1.03064
1.03067
1.0307
1.03073
1.03075
1.03078
1.03081
1.03084
1.03087
1.0309
1.03093
1.03096
1.03099
1.03103
1.03106
1.03109
1.03113
1.03116
1.03119
1.03227
1.02967
1.02969
1.02971
1.02973
1.02975
1.02977
1.02979
1.02982
1.02984
1.02986
1.02988
1.02991
1.02993
1.02995
1.02998
1.03
1.03003
1.03005
1.03008
1.0301
1.03013
1.03121
1.02875
1.02877
1.02878
1.02879
1.02881
1.02882
1.02884
1.02885
1.02887
1.02888
1.0289
1.02891
1.02893
1.02894
1.02896
1.02898
1.02899
1.02901
1.02903
1.02905
1.02906
1.03014
1.02784
1.02784
1.02785
1.02786
1.02787
1.02787
1.02788
1.02789
1.0279
1.0279
1.02791
1.02792
1.02793
1.02794
1.02795
1.02795
1.02796
1.02797
1.02798
1.02799
1.028
1.02908
1.02688
1.02688
1.02688
1.02688
1.02689
1.02689
1.02689
1.02689
1.02689
1.02689
1.02689
1.02689
1.02689
1.02689
1.02689
1.02689
1.02689
1.02689
1.02689
1.0269
1.0269
1.02797
)
;

boundaryField
{
    inlet
    {
        type            calculated;
        value           uniform 0;
    }
    outlet2
    {
        type            calculated;
        value           uniform 0;
    }
    outlet1
    {
        type            calculated;
        value           uniform 0;
    }
    wall
    {
        type            calculated;
        value           uniform 0;
    }
    symmetryBottom
    {
        type            symmetry;
    }
    symmetryZ0
    {
        type            symmetry;
    }
    symmetryZ05
    {
        type            symmetry;
    }
}


// ************************************************************************* //
