/*--------------------------------*- C++ -*----------------------------------*\
| =========                 |                                                 |
| \\      /  F ield         | OpenFOAM: The Open Source CFD Toolbox           |
|  \\    /   O peration     | Version:  2412                                  |
|   \\  /    A nd           | Website:  www.openfoam.com                      |
|    \\/     M anipulation  |                                                 |
\*---------------------------------------------------------------------------*/
FoamFile
{
    version     2.0;
    format      ascii;
    arch        "LSB;label=32;scalar=64";
    class       volScalarField;
    location    "9.96134e-07";
    object      rho;
}
// * * * * * * * * * * * * * * * * * * * * * * * * * * * * * * * * * * * * * //

dimensions      [0 0 0 0 0 0 0];

internalField   nonuniform List<scalar> 
625
(
2.85519e-05
2.39894e-05
2.39894e-05
2.85526e-05
2.399e-05
2.399e-05
2.85519e-05
2.39895e-05
2.39895e-05
2.85519e-05
2.39895e-05
2.39895e-05
2.85519e-05
2.39895e-05
2.39895e-05
2.85519e-05
2.39895e-05
2.39895e-05
2.85519e-05
2.39895e-05
2.39895e-05
2.85519e-05
2.39895e-05
2.39895e-05
2.85519e-05
2.39895e-05
2.39895e-05
2.85519e-05
2.39895e-05
2.39895e-05
2.85519e-05
2.39895e-05
2.39895e-05
2.85519e-05
2.39895e-05
2.39895e-05
2.85519e-05
2.39895e-05
2.39895e-05
2.85519e-05
2.39895e-05
2.39895e-05
2.85519e-05
2.39895e-05
2.39895e-05
2.85519e-05
2.39895e-05
2.39895e-05
2.85519e-05
2.39895e-05
2.39895e-05
2.85519e-05
2.39895e-05
2.39895e-05
2.85519e-05
2.39895e-05
2.39895e-05
2.85519e-05
2.39895e-05
2.39895e-05
2.85519e-05
2.39895e-05
2.39895e-05
2.85519e-05
2.39895e-05
2.39895e-05
2.85519e-05
2.39895e-05
2.39895e-05
2.85519e-05
2.39895e-05
2.39895e-05
2.85521e-05
2.39885e-05
2.39885e-05
2.47255e-05
2.47259e-05
2.47263e-05
2.47267e-05
2.47271e-05
2.47275e-05
2.47279e-05
2.47284e-05
2.47288e-05
2.47293e-05
2.47298e-05
2.47303e-05
2.47308e-05
2.47313e-05
2.47318e-05
2.47324e-05
2.4733e-05
2.47335e-05
2.47341e-05
2.47347e-05
2.47354e-05
2.47606e-05
2.5227e-05
2.52307e-05
2.52344e-05
2.52382e-05
2.52421e-05
2.5246e-05
2.52499e-05
2.5254e-05
2.52581e-05
2.52622e-05
2.52664e-05
2.52707e-05
2.5275e-05
2.52794e-05
2.52839e-05
2.52885e-05
2.52931e-05
2.52978e-05
2.53025e-05
2.53074e-05
2.53123e-05
2.53382e-05
2.51972e-05
2.52006e-05
2.52041e-05
2.52077e-05
2.52112e-05
2.52149e-05
2.52186e-05
2.52223e-05
2.52261e-05
2.52299e-05
2.52338e-05
2.52378e-05
2.52418e-05
2.52459e-05
2.52501e-05
2.52543e-05
2.52586e-05
2.52629e-05
2.52673e-05
2.52718e-05
2.52764e-05
2.53022e-05
2.51747e-05
2.5178e-05
2.51813e-05
2.51847e-05
2.51881e-05
2.51916e-05
2.51951e-05
2.51987e-05
2.52023e-05
2.5206e-05
2.52097e-05
2.52135e-05
2.52173e-05
2.52212e-05
2.52252e-05
2.52292e-05
2.52333e-05
2.52374e-05
2.52416e-05
2.52459e-05
2.52503e-05
2.52761e-05
2.51523e-05
2.51554e-05
2.51586e-05
2.51618e-05
2.5165e-05
2.51683e-05
2.51717e-05
2.51751e-05
2.51785e-05
2.5182e-05
2.51856e-05
2.51892e-05
2.51928e-05
2.51965e-05
2.52003e-05
2.52041e-05
2.5208e-05
2.5212e-05
2.5216e-05
2.522e-05
2.52242e-05
2.525e-05
2.51299e-05
2.51328e-05
2.51358e-05
2.51389e-05
2.51419e-05
2.51451e-05
2.51483e-05
2.51515e-05
2.51548e-05
2.51581e-05
2.51614e-05
2.51649e-05
2.51683e-05
2.51719e-05
2.51754e-05
2.51791e-05
2.51828e-05
2.51865e-05
2.51903e-05
2.51942e-05
2.51981e-05
2.52239e-05
2.51074e-05
2.51102e-05
2.51131e-05
2.5116e-05
2.51189e-05
2.51219e-05
2.51249e-05
2.51279e-05
2.5131e-05
2.51342e-05
2.51374e-05
2.51406e-05
2.51439e-05
2.51472e-05
2.51506e-05
2.5154e-05
2.51575e-05
2.51611e-05
2.51647e-05
2.51684e-05
2.51721e-05
2.51978e-05
2.5085e-05
2.50877e-05
2.50904e-05
2.50931e-05
2.50958e-05
2.50986e-05
2.51015e-05
2.51044e-05
2.51073e-05
2.51103e-05
2.51133e-05
2.51163e-05
2.51194e-05
2.51226e-05
2.51258e-05
2.5129e-05
2.51323e-05
2.51357e-05
2.51391e-05
2.51425e-05
2.51461e-05
2.51718e-05
2.50627e-05
2.50651e-05
2.50677e-05
2.50702e-05
2.50728e-05
2.50755e-05
2.50781e-05
2.50808e-05
2.50836e-05
2.50864e-05
2.50892e-05
2.50921e-05
2.5095e-05
2.5098e-05
2.5101e-05
2.5104e-05
2.51071e-05
2.51103e-05
2.51135e-05
2.51168e-05
2.51201e-05
2.51458e-05
2.50403e-05
2.50426e-05
2.5045e-05
2.50474e-05
2.50498e-05
2.50523e-05
2.50548e-05
2.50573e-05
2.50599e-05
2.50625e-05
2.50652e-05
2.50679e-05
2.50706e-05
2.50734e-05
2.50762e-05
2.50791e-05
2.5082e-05
2.50849e-05
2.50879e-05
2.5091e-05
2.50941e-05
2.51198e-05
2.5018e-05
2.50202e-05
2.50224e-05
2.50246e-05
2.50269e-05
2.50292e-05
2.50315e-05
2.50339e-05
2.50363e-05
2.50388e-05
2.50412e-05
2.50437e-05
2.50463e-05
2.50489e-05
2.50515e-05
2.50542e-05
2.50569e-05
2.50597e-05
2.50625e-05
2.50653e-05
2.50682e-05
2.50939e-05
2.49957e-05
2.49977e-05
2.49998e-05
2.50019e-05
2.5004e-05
2.50061e-05
2.50083e-05
2.50105e-05
2.50127e-05
2.5015e-05
2.50173e-05
2.50196e-05
2.5022e-05
2.50244e-05
2.50268e-05
2.50293e-05
2.50318e-05
2.50344e-05
2.5037e-05
2.50396e-05
2.50423e-05
2.5068e-05
2.49735e-05
2.49753e-05
2.49772e-05
2.49791e-05
2.49811e-05
2.49831e-05
2.49851e-05
2.49871e-05
2.49892e-05
2.49912e-05
2.49934e-05
2.49955e-05
2.49977e-05
2.49999e-05
2.50022e-05
2.50045e-05
2.50068e-05
2.50092e-05
2.50116e-05
2.5014e-05
2.50165e-05
2.50421e-05
2.49512e-05
2.49529e-05
2.49547e-05
2.49564e-05
2.49582e-05
2.496e-05
2.49618e-05
2.49637e-05
2.49656e-05
2.49675e-05
2.49695e-05
2.49714e-05
2.49735e-05
2.49755e-05
2.49776e-05
2.49797e-05
2.49818e-05
2.4984e-05
2.49862e-05
2.49884e-05
2.49907e-05
2.50163e-05
2.4929e-05
2.49305e-05
2.49321e-05
2.49337e-05
2.49353e-05
2.4937e-05
2.49387e-05
2.49404e-05
2.49421e-05
2.49438e-05
2.49456e-05
2.49474e-05
2.49492e-05
2.49511e-05
2.49529e-05
2.49549e-05
2.49568e-05
2.49588e-05
2.49608e-05
2.49628e-05
2.49649e-05
2.49904e-05
2.49068e-05
2.49082e-05
2.49096e-05
2.4911e-05
2.49125e-05
2.4914e-05
2.49155e-05
2.4917e-05
2.49186e-05
2.49201e-05
2.49217e-05
2.49234e-05
2.4925e-05
2.49267e-05
2.49284e-05
2.49301e-05
2.49318e-05
2.49336e-05
2.49354e-05
2.49372e-05
2.49391e-05
2.49646e-05
2.48846e-05
2.48858e-05
2.48871e-05
2.48884e-05
2.48897e-05
2.4891e-05
2.48923e-05
2.48937e-05
2.48951e-05
2.48965e-05
2.48979e-05
2.48993e-05
2.49008e-05
2.49023e-05
2.49038e-05
2.49053e-05
2.49069e-05
2.49085e-05
2.49101e-05
2.49117e-05
2.49133e-05
2.49389e-05
2.48624e-05
2.48635e-05
2.48646e-05
2.48657e-05
2.48669e-05
2.4868e-05
2.48692e-05
2.48704e-05
2.48716e-05
2.48728e-05
2.48741e-05
2.48753e-05
2.48766e-05
2.48779e-05
2.48792e-05
2.48806e-05
2.4882e-05
2.48833e-05
2.48847e-05
2.48862e-05
2.48876e-05
2.49131e-05
2.48403e-05
2.48412e-05
2.48421e-05
2.48431e-05
2.48441e-05
2.48451e-05
2.48461e-05
2.48471e-05
2.48482e-05
2.48492e-05
2.48503e-05
2.48514e-05
2.48525e-05
2.48536e-05
2.48547e-05
2.48559e-05
2.4857e-05
2.48582e-05
2.48594e-05
2.48607e-05
2.48619e-05
2.48874e-05
2.48181e-05
2.48189e-05
2.48197e-05
2.48205e-05
2.48213e-05
2.48222e-05
2.4823e-05
2.48239e-05
2.48247e-05
2.48256e-05
2.48265e-05
2.48274e-05
2.48283e-05
2.48293e-05
2.48302e-05
2.48312e-05
2.48322e-05
2.48332e-05
2.48342e-05
2.48352e-05
2.48362e-05
2.48617e-05
2.4796e-05
2.47966e-05
2.47973e-05
2.47979e-05
2.47986e-05
2.47992e-05
2.47999e-05
2.48006e-05
2.48013e-05
2.4802e-05
2.48027e-05
2.48035e-05
2.48042e-05
2.4805e-05
2.48057e-05
2.48065e-05
2.48073e-05
2.48081e-05
2.48089e-05
2.48097e-05
2.48106e-05
2.4836e-05
2.47739e-05
2.47744e-05
2.47749e-05
2.47753e-05
2.47758e-05
2.47764e-05
2.47769e-05
2.47774e-05
2.47779e-05
2.47785e-05
2.4779e-05
2.47796e-05
2.47801e-05
2.47807e-05
2.47813e-05
2.47819e-05
2.47825e-05
2.47831e-05
2.47837e-05
2.47843e-05
2.4785e-05
2.48103e-05
2.47518e-05
2.47521e-05
2.47525e-05
2.47528e-05
2.47531e-05
2.47535e-05
2.47538e-05
2.47542e-05
2.47545e-05
2.47549e-05
2.47553e-05
2.47557e-05
2.47561e-05
2.47564e-05
2.47568e-05
2.47572e-05
2.47576e-05
2.47581e-05
2.47585e-05
2.47589e-05
2.47593e-05
2.47847e-05
2.47297e-05
2.47299e-05
2.47301e-05
2.47303e-05
2.47304e-05
2.47306e-05
2.47308e-05
2.4731e-05
2.47312e-05
2.47314e-05
2.47316e-05
2.47318e-05
2.4732e-05
2.47322e-05
2.47324e-05
2.47326e-05
2.47329e-05
2.47331e-05
2.47333e-05
2.47335e-05
2.47338e-05
2.47591e-05
2.47068e-05
2.47068e-05
2.47068e-05
2.47069e-05
2.47069e-05
2.47069e-05
2.47069e-05
2.47069e-05
2.47069e-05
2.4707e-05
2.4707e-05
2.4707e-05
2.4707e-05
2.4707e-05
2.47071e-05
2.47071e-05
2.47071e-05
2.47071e-05
2.47072e-05
2.47072e-05
2.47072e-05
2.47326e-05
)
;

boundaryField
{
    inlet
    {
        type            calculated;
        value           uniform 0;
    }
    outlet2
    {
        type            calculated;
        value           uniform 0;
    }
    outlet1
    {
        type            calculated;
        value           uniform 0;
    }
    wall
    {
        type            calculated;
        value           uniform 0;
    }
    symmetryBottom
    {
        type            symmetry;
    }
    symmetryZ0
    {
        type            symmetry;
    }
    symmetryZ05
    {
        type            symmetry;
    }
}


// ************************************************************************* //
