/*--------------------------------*- C++ -*----------------------------------*\
| =========                 |                                                 |
| \\      /  F ield         | OpenFOAM: The Open Source CFD Toolbox           |
|  \\    /   O peration     | Version:  2412                                  |
|   \\  /    A nd           | Website:  www.openfoam.com                      |
|    \\/     M anipulation  |                                                 |
\*---------------------------------------------------------------------------*/
FoamFile
{
    version     2.0;
    format      ascii;
    arch        "LSB;label=32;scalar=64";
    class       volScalarField;
    location    "9.96134e-07";
    object      rho_dof1;
}
// * * * * * * * * * * * * * * * * * * * * * * * * * * * * * * * * * * * * * //

dimensions      [0 0 0 0 0 0 0];

internalField   nonuniform List<scalar> 
625
(
1.19575e-05
-5.78035e-13
-6.23936e-09
1.19577e-05
-5.78025e-13
-9.78114e-10
1.19577e-05
-5.78036e-13
-2.74411e-09
1.19577e-05
-5.78036e-13
-2.73756e-09
1.19577e-05
-5.78036e-13
-2.73758e-09
1.19577e-05
-5.78036e-13
-2.73758e-09
1.19577e-05
-5.78036e-13
-2.73758e-09
1.19577e-05
-5.78036e-13
-2.73758e-09
1.19577e-05
-5.78036e-13
-2.73758e-09
1.19577e-05
-5.78036e-13
-2.73758e-09
1.19577e-05
-5.78036e-13
-2.73758e-09
1.19577e-05
-5.78036e-13
-2.73758e-09
1.19577e-05
-5.78036e-13
-2.73758e-09
1.19577e-05
-5.78036e-13
-2.73758e-09
1.19577e-05
-5.78036e-13
-2.73758e-09
1.19577e-05
-5.78036e-13
-2.73758e-09
1.19577e-05
-5.78036e-13
-2.73758e-09
1.19577e-05
-5.78036e-13
-2.73758e-09
1.19577e-05
-5.78036e-13
-2.73758e-09
1.19577e-05
-5.78036e-13
-2.73758e-09
1.19577e-05
-5.78036e-13
-2.73758e-09
1.19577e-05
-5.78036e-13
-2.73758e-09
1.19577e-05
-5.78036e-13
-2.73745e-09
1.19577e-05
-5.78036e-13
-2.79212e-09
1.19605e-05
-5.78288e-13
-2.45641e-10
-2.92489e-08
-2.94506e-08
-2.96551e-08
-2.98625e-08
-3.00728e-08
-3.02861e-08
-3.05025e-08
-3.07219e-08
-3.09446e-08
-3.11705e-08
-3.13997e-08
-3.16323e-08
-3.18684e-08
-3.21081e-08
-3.23513e-08
-3.25983e-08
-3.28491e-08
-3.31038e-08
-3.33625e-08
-3.36252e-08
-3.38921e-08
-1.75029e-06
-2.98562e-08
-3.00664e-08
-3.02795e-08
-3.04956e-08
-3.07149e-08
-3.09374e-08
-3.1163e-08
-3.1392e-08
-3.16244e-08
-3.18603e-08
-3.20997e-08
-3.23427e-08
-3.25894e-08
-3.28399e-08
-3.30944e-08
-3.33527e-08
-3.36152e-08
-3.38818e-08
-3.41527e-08
-3.44279e-08
-3.47076e-08
6.11776e-08
-2.98321e-08
-3.00419e-08
-3.02547e-08
-3.04705e-08
-3.06894e-08
-3.09114e-08
-3.11367e-08
-3.13653e-08
-3.15973e-08
-3.18328e-08
-3.20718e-08
-3.23144e-08
-3.25607e-08
-3.28108e-08
-3.30647e-08
-3.33226e-08
-3.35846e-08
-3.38507e-08
-3.41211e-08
-3.43958e-08
-3.4675e-08
3.20032e-08
-2.98082e-08
-3.00177e-08
-3.02301e-08
-3.04456e-08
-3.06641e-08
-3.08858e-08
-3.11108e-08
-3.1339e-08
-3.15706e-08
-3.18057e-08
-3.20443e-08
-3.22864e-08
-3.25323e-08
-3.2782e-08
-3.30355e-08
-3.32929e-08
-3.35544e-08
-3.38201e-08
-3.409e-08
-3.43642e-08
-3.46429e-08
3.22368e-08
-2.97844e-08
-2.99935e-08
-3.02056e-08
-3.04207e-08
-3.06389e-08
-3.08603e-08
-3.10848e-08
-3.13127e-08
-3.15439e-08
-3.17786e-08
-3.20167e-08
-3.22585e-08
-3.2504e-08
-3.27532e-08
-3.30063e-08
-3.32633e-08
-3.35243e-08
-3.37895e-08
-3.40589e-08
-3.43326e-08
-3.46108e-08
3.24819e-08
-2.97606e-08
-2.99694e-08
-3.01811e-08
-3.03959e-08
-3.06137e-08
-3.08347e-08
-3.10589e-08
-3.12864e-08
-3.15172e-08
-3.17515e-08
-3.19893e-08
-3.22306e-08
-3.24756e-08
-3.27244e-08
-3.29771e-08
-3.32336e-08
-3.34942e-08
-3.37589e-08
-3.40278e-08
-3.43011e-08
-3.45787e-08
3.27316e-08
-2.97368e-08
-2.99452e-08
-3.01566e-08
-3.03711e-08
-3.05885e-08
-3.08092e-08
-3.1033e-08
-3.12601e-08
-3.14905e-08
-3.17244e-08
-3.19618e-08
-3.22027e-08
-3.24473e-08
-3.26957e-08
-3.29479e-08
-3.3204e-08
-3.34641e-08
-3.37283e-08
-3.39968e-08
-3.42695e-08
-3.45467e-08
3.29877e-08
-2.9713e-08
-2.99211e-08
-3.01322e-08
-3.03463e-08
-3.05634e-08
-3.07837e-08
-3.10071e-08
-3.12338e-08
-3.14639e-08
-3.16974e-08
-3.19343e-08
-3.21749e-08
-3.24191e-08
-3.2667e-08
-3.29187e-08
-3.31744e-08
-3.34341e-08
-3.36978e-08
-3.39657e-08
-3.4238e-08
-3.45146e-08
3.32502e-08
-2.96892e-08
-2.9897e-08
-3.01077e-08
-3.03214e-08
-3.05382e-08
-3.07581e-08
-3.09812e-08
-3.12076e-08
-3.14372e-08
-3.16703e-08
-3.19069e-08
-3.2147e-08
-3.23908e-08
-3.26383e-08
-3.28896e-08
-3.31448e-08
-3.3404e-08
-3.36673e-08
-3.39347e-08
-3.42065e-08
-3.44826e-08
3.35192e-08
-2.96654e-08
-2.98729e-08
-3.00833e-08
-3.02967e-08
-3.05131e-08
-3.07326e-08
-3.09553e-08
-3.11813e-08
-3.14106e-08
-3.16433e-08
-3.18795e-08
-3.21192e-08
-3.23625e-08
-3.26096e-08
-3.28605e-08
-3.31152e-08
-3.3374e-08
-3.36368e-08
-3.39038e-08
-3.4175e-08
-3.44506e-08
3.37899e-08
-2.96413e-08
-2.98484e-08
-3.00585e-08
-3.02715e-08
-3.04876e-08
-3.07067e-08
-3.09291e-08
-3.11547e-08
-3.13836e-08
-3.16159e-08
-3.18516e-08
-3.20909e-08
-3.23339e-08
-3.25805e-08
-3.28309e-08
-3.30852e-08
-3.33435e-08
-3.36058e-08
-3.38723e-08
-3.4143e-08
-3.44182e-08
3.38784e-08
-2.96172e-08
-2.9824e-08
-3.00337e-08
-3.02463e-08
-3.04621e-08
-3.06809e-08
-3.09028e-08
-3.1128e-08
-3.13566e-08
-3.15884e-08
-3.18238e-08
-3.20627e-08
-3.23052e-08
-3.25514e-08
-3.28013e-08
-3.30552e-08
-3.3313e-08
-3.35749e-08
-3.38408e-08
-3.41111e-08
-3.43857e-08
3.39531e-08
-2.95931e-08
-2.97995e-08
-3.00089e-08
-3.02212e-08
-3.04366e-08
-3.0655e-08
-3.08766e-08
-3.11014e-08
-3.13296e-08
-3.15611e-08
-3.1796e-08
-3.20345e-08
-3.22766e-08
-3.25223e-08
-3.27718e-08
-3.30252e-08
-3.32826e-08
-3.35439e-08
-3.38094e-08
-3.40792e-08
-3.43533e-08
3.40304e-08
-2.9569e-08
-2.97751e-08
-2.99841e-08
-3.01961e-08
-3.04111e-08
-3.06292e-08
-3.08504e-08
-3.10748e-08
-3.13026e-08
-3.15337e-08
-3.17682e-08
-3.20063e-08
-3.22479e-08
-3.24932e-08
-3.27423e-08
-3.29953e-08
-3.32521e-08
-3.3513e-08
-3.37781e-08
-3.40473e-08
-3.43209e-08
3.41104e-08
-2.95449e-08
-2.97507e-08
-2.99594e-08
-3.0171e-08
-3.03856e-08
-3.06033e-08
-3.08242e-08
-3.10483e-08
-3.12756e-08
-3.15063e-08
-3.17405e-08
-3.19781e-08
-3.22193e-08
-3.24642e-08
-3.27128e-08
-3.29653e-08
-3.32217e-08
-3.34821e-08
-3.37467e-08
-3.40154e-08
-3.42885e-08
3.41933e-08
-2.95209e-08
-2.97263e-08
-2.99346e-08
-3.01459e-08
-3.03602e-08
-3.05776e-08
-3.0798e-08
-3.10217e-08
-3.12487e-08
-3.1479e-08
-3.17127e-08
-3.19499e-08
-3.21907e-08
-3.24352e-08
-3.26834e-08
-3.29354e-08
-3.31914e-08
-3.34513e-08
-3.37153e-08
-3.39836e-08
-3.42562e-08
3.4279e-08
-2.94968e-08
-2.97019e-08
-2.991e-08
-3.01209e-08
-3.03348e-08
-3.05518e-08
-3.07719e-08
-3.09952e-08
-3.12218e-08
-3.14517e-08
-3.1685e-08
-3.19218e-08
-3.21622e-08
-3.24062e-08
-3.26539e-08
-3.29055e-08
-3.3161e-08
-3.34205e-08
-3.3684e-08
-3.39518e-08
-3.42238e-08
3.43676e-08
-2.94728e-08
-2.96776e-08
-2.98852e-08
-3.00958e-08
-3.03094e-08
-3.0526e-08
-3.07458e-08
-3.09687e-08
-3.11949e-08
-3.14244e-08
-3.16573e-08
-3.18937e-08
-3.21336e-08
-3.23772e-08
-3.26245e-08
-3.28756e-08
-3.31306e-08
-3.33897e-08
-3.36527e-08
-3.392e-08
-3.41915e-08
3.44589e-08
-2.94488e-08
-2.96532e-08
-2.98606e-08
-3.00708e-08
-3.0284e-08
-3.05003e-08
-3.07196e-08
-3.09422e-08
-3.1168e-08
-3.13971e-08
-3.16296e-08
-3.18656e-08
-3.21051e-08
-3.23483e-08
-3.25951e-08
-3.28458e-08
-3.31004e-08
-3.33589e-08
-3.36215e-08
-3.38882e-08
-3.41593e-08
3.45531e-08
-2.94248e-08
-2.96289e-08
-2.98359e-08
-3.00458e-08
-3.02587e-08
-3.04745e-08
-3.06936e-08
-3.09157e-08
-3.11411e-08
-3.13699e-08
-3.16019e-08
-3.18375e-08
-3.20766e-08
-3.23193e-08
-3.25658e-08
-3.2816e-08
-3.30701e-08
-3.33281e-08
-3.35902e-08
-3.38565e-08
-3.4127e-08
3.46501e-08
-2.94008e-08
-2.96046e-08
-2.98113e-08
-3.00208e-08
-3.02333e-08
-3.04488e-08
-3.06675e-08
-3.08893e-08
-3.11143e-08
-3.13426e-08
-3.15743e-08
-3.18095e-08
-3.20481e-08
-3.22904e-08
-3.25364e-08
-3.27862e-08
-3.30398e-08
-3.32974e-08
-3.3559e-08
-3.38248e-08
-3.40948e-08
3.475e-08
-2.93769e-08
-2.95803e-08
-2.97866e-08
-2.99958e-08
-3.0208e-08
-3.04231e-08
-3.06414e-08
-3.08628e-08
-3.10874e-08
-3.13154e-08
-3.15467e-08
-3.17814e-08
-3.20197e-08
-3.22615e-08
-3.25071e-08
-3.27564e-08
-3.30096e-08
-3.32667e-08
-3.35278e-08
-3.37931e-08
-3.40626e-08
3.48526e-08
-2.9353e-08
-2.95561e-08
-2.9762e-08
-2.99709e-08
-3.01827e-08
-3.03975e-08
-3.06154e-08
-3.08364e-08
-3.10607e-08
-3.12882e-08
-3.15191e-08
-3.17534e-08
-3.19912e-08
-3.22327e-08
-3.24778e-08
-3.27267e-08
-3.29793e-08
-3.3236e-08
-3.34966e-08
-3.37614e-08
-3.40304e-08
3.4958e-08
-2.9329e-08
-2.95318e-08
-2.97374e-08
-2.99459e-08
-3.01574e-08
-3.03719e-08
-3.05894e-08
-3.081e-08
-3.10339e-08
-3.1261e-08
-3.14915e-08
-3.17254e-08
-3.19629e-08
-3.22039e-08
-3.24485e-08
-3.26969e-08
-3.29492e-08
-3.32053e-08
-3.34655e-08
-3.37298e-08
-3.39983e-08
3.50538e-08
-2.93111e-08
-2.95136e-08
-2.9719e-08
-2.99273e-08
-3.01384e-08
-3.03526e-08
-3.05699e-08
-3.07902e-08
-3.10138e-08
-3.12407e-08
-3.14709e-08
-3.17045e-08
-3.19416e-08
-3.21823e-08
-3.24266e-08
-3.26747e-08
-3.29266e-08
-3.31824e-08
-3.34422e-08
-3.37061e-08
-3.39742e-08
3.8047e-08
)
;

boundaryField
{
    inlet
    {
        type            calculated;
        value           uniform 0;
    }
    outlet2
    {
        type            calculated;
        value           uniform 0;
    }
    outlet1
    {
        type            calculated;
        value           uniform 0;
    }
    wall
    {
        type            calculated;
        value           uniform 0;
    }
    symmetryBottom
    {
        type            symmetry;
    }
    symmetryZ0
    {
        type            symmetry;
    }
    symmetryZ05
    {
        type            symmetry;
    }
}


// ************************************************************************* //
