/*--------------------------------*- C++ -*----------------------------------*\
| =========                 |                                                 |
| \\      /  F ield         | OpenFOAM: The Open Source CFD Toolbox           |
|  \\    /   O peration     | Version:  2412                                  |
|   \\  /    A nd           | Website:  www.openfoam.com                      |
|    \\/     M anipulation  |                                                 |
\*---------------------------------------------------------------------------*/
FoamFile
{
    version     2.0;
    format      ascii;
    arch        "LSB;label=32;scalar=64";
    class       volScalarField;
    location    "9.96134e-07";
    object      rho_dof0;
}
// * * * * * * * * * * * * * * * * * * * * * * * * * * * * * * * * * * * * * //

dimensions      [0 0 0 0 0 0 0];

internalField   nonuniform List<scalar> 
625
(
2.85519e-05
2.39894e-05
2.39894e-05
2.85526e-05
2.399e-05
2.399e-05
2.85519e-05
2.39895e-05
2.39895e-05
2.85519e-05
2.39895e-05
2.39895e-05
2.85519e-05
2.39895e-05
2.39895e-05
2.85519e-05
2.39895e-05
2.39895e-05
2.85519e-05
2.39895e-05
2.39895e-05
2.85519e-05
2.39895e-05
2.39895e-05
2.85519e-05
2.39895e-05
2.39895e-05
2.85519e-05
2.39895e-05
2.39895e-05
2.85519e-05
2.39895e-05
2.39895e-05
2.85519e-05
2.39895e-05
2.39895e-05
2.85519e-05
2.39895e-05
2.39895e-05
2.85519e-05
2.39895e-05
2.39895e-05
2.85519e-05
2.39895e-05
2.39895e-05
2.85519e-05
2.39895e-05
2.39895e-05
2.85519e-05
2.39895e-05
2.39895e-05
2.85519e-05
2.39895e-05
2.39895e-05
2.85519e-05
2.39895e-05
2.39895e-05
2.85519e-05
2.39895e-05
2.39895e-05
2.85519e-05
2.39895e-05
2.39895e-05
2.85519e-05
2.39895e-05
2.39895e-05
2.85519e-05
2.39895e-05
2.39895e-05
2.85519e-05
2.39895e-05
2.39895e-05
2.85521e-05
2.39885e-05
2.39885e-05
2.47255e-05
2.47259e-05
2.47263e-05
2.47267e-05
2.47271e-05
2.47275e-05
2.4728e-05
2.47284e-05
2.47289e-05
2.47293e-05
2.47298e-05
2.47303e-05
2.47308e-05
2.47314e-05
2.47319e-05
2.47324e-05
2.4733e-05
2.47336e-05
2.47342e-05
2.47348e-05
2.47354e-05
2.47609e-05
2.5227e-05
2.52307e-05
2.52344e-05
2.52382e-05
2.52421e-05
2.5246e-05
2.525e-05
2.5254e-05
2.52581e-05
2.52622e-05
2.52665e-05
2.52707e-05
2.52751e-05
2.52795e-05
2.5284e-05
2.52885e-05
2.52931e-05
2.52978e-05
2.53026e-05
2.53074e-05
2.53124e-05
2.53385e-05
2.51972e-05
2.52007e-05
2.52042e-05
2.52077e-05
2.52113e-05
2.52149e-05
2.52186e-05
2.52223e-05
2.52261e-05
2.523e-05
2.52339e-05
2.52379e-05
2.52419e-05
2.5246e-05
2.52501e-05
2.52543e-05
2.52586e-05
2.5263e-05
2.52674e-05
2.52719e-05
2.52764e-05
2.53025e-05
2.51748e-05
2.5178e-05
2.51814e-05
2.51847e-05
2.51882e-05
2.51916e-05
2.51951e-05
2.51987e-05
2.52023e-05
2.5206e-05
2.52097e-05
2.52135e-05
2.52174e-05
2.52213e-05
2.52252e-05
2.52292e-05
2.52333e-05
2.52375e-05
2.52417e-05
2.5246e-05
2.52503e-05
2.52764e-05
2.51523e-05
2.51554e-05
2.51586e-05
2.51618e-05
2.51651e-05
2.51684e-05
2.51717e-05
2.51751e-05
2.51786e-05
2.5182e-05
2.51856e-05
2.51892e-05
2.51929e-05
2.51966e-05
2.52003e-05
2.52042e-05
2.52081e-05
2.5212e-05
2.5216e-05
2.52201e-05
2.52242e-05
2.52503e-05
2.51299e-05
2.51328e-05
2.51359e-05
2.51389e-05
2.5142e-05
2.51451e-05
2.51483e-05
2.51515e-05
2.51548e-05
2.51581e-05
2.51615e-05
2.51649e-05
2.51684e-05
2.51719e-05
2.51755e-05
2.51791e-05
2.51828e-05
2.51866e-05
2.51904e-05
2.51942e-05
2.51982e-05
2.52242e-05
2.51075e-05
2.51103e-05
2.51131e-05
2.5116e-05
2.51189e-05
2.51219e-05
2.51249e-05
2.5128e-05
2.51311e-05
2.51342e-05
2.51374e-05
2.51406e-05
2.51439e-05
2.51473e-05
2.51506e-05
2.51541e-05
2.51576e-05
2.51611e-05
2.51647e-05
2.51684e-05
2.51721e-05
2.51981e-05
2.50851e-05
2.50877e-05
2.50904e-05
2.50931e-05
2.50959e-05
2.50987e-05
2.51015e-05
2.51044e-05
2.51073e-05
2.51103e-05
2.51133e-05
2.51164e-05
2.51195e-05
2.51226e-05
2.51258e-05
2.51291e-05
2.51324e-05
2.51357e-05
2.51391e-05
2.51426e-05
2.51461e-05
2.51721e-05
2.50627e-05
2.50652e-05
2.50677e-05
2.50703e-05
2.50729e-05
2.50755e-05
2.50782e-05
2.50809e-05
2.50836e-05
2.50864e-05
2.50893e-05
2.50921e-05
2.50951e-05
2.5098e-05
2.5101e-05
2.51041e-05
2.51072e-05
2.51103e-05
2.51135e-05
2.51168e-05
2.51201e-05
2.5146e-05
2.50403e-05
2.50427e-05
2.5045e-05
2.50474e-05
2.50499e-05
2.50523e-05
2.50548e-05
2.50574e-05
2.506e-05
2.50626e-05
2.50652e-05
2.50679e-05
2.50707e-05
2.50734e-05
2.50763e-05
2.50791e-05
2.5082e-05
2.5085e-05
2.5088e-05
2.5091e-05
2.50941e-05
2.512e-05
2.5018e-05
2.50202e-05
2.50224e-05
2.50247e-05
2.50269e-05
2.50292e-05
2.50316e-05
2.50339e-05
2.50363e-05
2.50388e-05
2.50413e-05
2.50438e-05
2.50463e-05
2.50489e-05
2.50516e-05
2.50542e-05
2.50569e-05
2.50597e-05
2.50625e-05
2.50654e-05
2.50682e-05
2.50941e-05
2.49957e-05
2.49978e-05
2.49998e-05
2.50019e-05
2.5004e-05
2.50062e-05
2.50083e-05
2.50105e-05
2.50128e-05
2.5015e-05
2.50173e-05
2.50197e-05
2.5022e-05
2.50244e-05
2.50269e-05
2.50294e-05
2.50319e-05
2.50344e-05
2.50371e-05
2.50397e-05
2.50424e-05
2.50682e-05
2.49735e-05
2.49754e-05
2.49772e-05
2.49792e-05
2.49811e-05
2.49831e-05
2.49851e-05
2.49871e-05
2.49892e-05
2.49913e-05
2.49934e-05
2.49956e-05
2.49978e-05
2.5e-05
2.50022e-05
2.50045e-05
2.50069e-05
2.50092e-05
2.50116e-05
2.50141e-05
2.50165e-05
2.50424e-05
2.49512e-05
2.4953e-05
2.49547e-05
2.49565e-05
2.49582e-05
2.496e-05
2.49619e-05
2.49637e-05
2.49656e-05
2.49676e-05
2.49695e-05
2.49715e-05
2.49735e-05
2.49755e-05
2.49776e-05
2.49797e-05
2.49818e-05
2.4984e-05
2.49862e-05
2.49884e-05
2.49907e-05
2.50165e-05
2.4929e-05
2.49306e-05
2.49322e-05
2.49338e-05
2.49354e-05
2.4937e-05
2.49387e-05
2.49404e-05
2.49421e-05
2.49439e-05
2.49456e-05
2.49474e-05
2.49493e-05
2.49511e-05
2.4953e-05
2.49549e-05
2.49568e-05
2.49588e-05
2.49608e-05
2.49628e-05
2.49649e-05
2.49907e-05
2.49068e-05
2.49082e-05
2.49096e-05
2.49111e-05
2.49125e-05
2.4914e-05
2.49155e-05
2.49171e-05
2.49186e-05
2.49202e-05
2.49218e-05
2.49234e-05
2.4925e-05
2.49267e-05
2.49284e-05
2.49301e-05
2.49319e-05
2.49336e-05
2.49354e-05
2.49373e-05
2.49391e-05
2.49649e-05
2.48846e-05
2.48859e-05
2.48871e-05
2.48884e-05
2.48897e-05
2.4891e-05
2.48924e-05
2.48937e-05
2.48951e-05
2.48965e-05
2.48979e-05
2.48994e-05
2.49008e-05
2.49023e-05
2.49038e-05
2.49054e-05
2.49069e-05
2.49085e-05
2.49101e-05
2.49117e-05
2.49134e-05
2.49391e-05
2.48624e-05
2.48635e-05
2.48646e-05
2.48658e-05
2.48669e-05
2.48681e-05
2.48692e-05
2.48704e-05
2.48716e-05
2.48729e-05
2.48741e-05
2.48754e-05
2.48767e-05
2.4878e-05
2.48793e-05
2.48806e-05
2.4882e-05
2.48834e-05
2.48848e-05
2.48862e-05
2.48877e-05
2.49134e-05
2.48403e-05
2.48412e-05
2.48422e-05
2.48431e-05
2.48441e-05
2.48451e-05
2.48461e-05
2.48472e-05
2.48482e-05
2.48492e-05
2.48503e-05
2.48514e-05
2.48525e-05
2.48536e-05
2.48548e-05
2.48559e-05
2.48571e-05
2.48583e-05
2.48595e-05
2.48607e-05
2.4862e-05
2.48877e-05
2.48181e-05
2.48189e-05
2.48197e-05
2.48205e-05
2.48214e-05
2.48222e-05
2.4823e-05
2.48239e-05
2.48248e-05
2.48256e-05
2.48265e-05
2.48274e-05
2.48284e-05
2.48293e-05
2.48303e-05
2.48312e-05
2.48322e-05
2.48332e-05
2.48342e-05
2.48352e-05
2.48363e-05
2.4862e-05
2.4796e-05
2.47967e-05
2.47973e-05
2.4798e-05
2.47986e-05
2.47993e-05
2.48e-05
2.48007e-05
2.48014e-05
2.48021e-05
2.48028e-05
2.48035e-05
2.48043e-05
2.4805e-05
2.48058e-05
2.48066e-05
2.48073e-05
2.48081e-05
2.4809e-05
2.48098e-05
2.48106e-05
2.48363e-05
2.47739e-05
2.47744e-05
2.47749e-05
2.47754e-05
2.47759e-05
2.47764e-05
2.47769e-05
2.47774e-05
2.4778e-05
2.47785e-05
2.4779e-05
2.47796e-05
2.47802e-05
2.47807e-05
2.47813e-05
2.47819e-05
2.47825e-05
2.47831e-05
2.47837e-05
2.47844e-05
2.4785e-05
2.48106e-05
2.47518e-05
2.47522e-05
2.47525e-05
2.47528e-05
2.47532e-05
2.47535e-05
2.47539e-05
2.47542e-05
2.47546e-05
2.4755e-05
2.47553e-05
2.47557e-05
2.47561e-05
2.47565e-05
2.47569e-05
2.47573e-05
2.47577e-05
2.47581e-05
2.47585e-05
2.4759e-05
2.47594e-05
2.4785e-05
2.47298e-05
2.47299e-05
2.47301e-05
2.47303e-05
2.47305e-05
2.47307e-05
2.47309e-05
2.4731e-05
2.47312e-05
2.47314e-05
2.47316e-05
2.47318e-05
2.4732e-05
2.47323e-05
2.47325e-05
2.47327e-05
2.47329e-05
2.47331e-05
2.47333e-05
2.47336e-05
2.47338e-05
2.47594e-05
2.47068e-05
2.47069e-05
2.47069e-05
2.47069e-05
2.47069e-05
2.47069e-05
2.47069e-05
2.4707e-05
2.4707e-05
2.4707e-05
2.4707e-05
2.4707e-05
2.47071e-05
2.47071e-05
2.47071e-05
2.47071e-05
2.47071e-05
2.47072e-05
2.47072e-05
2.47072e-05
2.47072e-05
2.47328e-05
)
;

boundaryField
{
    inlet
    {
        type            calculated;
        value           uniform 2.81085e-05;
    }
    outlet2
    {
        type            calculated;
        value           uniform 2.81085e-05;
    }
    outlet1
    {
        type            calculated;
        value           uniform 2.81085e-05;
    }
    wall
    {
        type            calculated;
        value           uniform 2.81085e-05;
    }
    symmetryBottom
    {
        type            symmetry;
    }
    symmetryZ0
    {
        type            symmetry;
    }
    symmetryZ05
    {
        type            symmetry;
    }
}


// ************************************************************************* //
