/*--------------------------------*- C++ -*----------------------------------*\
| =========                 |                                                 |
| \\      /  F ield         | OpenFOAM: The Open Source CFD Toolbox           |
|  \\    /   O peration     | Version:  2412                                  |
|   \\  /    A nd           | Website:  www.openfoam.com                      |
|    \\/     M anipulation  |                                                 |
\*---------------------------------------------------------------------------*/
FoamFile
{
    version     2.0;
    format      ascii;
    arch        "LSB;label=32;scalar=64";
    class       volScalarField;
    location    "9.96134e-07";
    object      rho_dof2;
}
// * * * * * * * * * * * * * * * * * * * * * * * * * * * * * * * * * * * * * //

dimensions      [0 0 0 0 0 0 0];

internalField   nonuniform List<scalar> 
625
(
3.33191e-09
6.23143e-09
-3.25309e-11
-2.45835e-09
9.0145e-10
-1.37448e-10
-5.28817e-10
2.66722e-09
-1.37266e-10
-5.35869e-10
2.66068e-09
-1.37267e-10
-5.35852e-10
2.6607e-09
-1.37267e-10
-5.35852e-10
2.6607e-09
-1.37267e-10
-5.35852e-10
2.6607e-09
-1.37267e-10
-5.35852e-10
2.6607e-09
-1.37267e-10
-5.35852e-10
2.6607e-09
-1.37267e-10
-5.35852e-10
2.6607e-09
-1.37267e-10
-5.35852e-10
2.6607e-09
-1.37267e-10
-5.35852e-10
2.6607e-09
-1.37267e-10
-5.35852e-10
2.6607e-09
-1.37267e-10
-5.35852e-10
2.6607e-09
-1.37267e-10
-5.35852e-10
2.6607e-09
-1.37267e-10
-5.35852e-10
2.6607e-09
-1.37267e-10
-5.35852e-10
2.6607e-09
-1.37267e-10
-5.35852e-10
2.6607e-09
-1.37267e-10
-5.35852e-10
2.6607e-09
-1.37267e-10
-5.35852e-10
2.6607e-09
-1.37267e-10
-5.35852e-10
2.6607e-09
-1.37267e-10
-5.35852e-10
2.6607e-09
-1.37267e-10
-5.3585e-10
2.66068e-09
-1.37007e-10
-5.36566e-10
2.67104e-09
1.24347e-10
-1.86387e-10
-1.97857e-10
-2.50723e-10
1.52354e-06
1.53344e-06
1.54346e-06
1.55361e-06
1.5639e-06
1.57432e-06
1.58488e-06
1.59557e-06
1.60642e-06
1.6174e-06
1.62854e-06
1.63983e-06
1.65127e-06
1.66287e-06
1.67463e-06
1.68655e-06
1.69865e-06
1.71091e-06
1.72335e-06
1.73596e-06
1.74876e-06
7.26062e-12
-4.87688e-08
-4.92706e-08
-4.97817e-08
-5.03024e-08
-5.08328e-08
-5.13734e-08
-5.19243e-08
-5.24858e-08
-5.30583e-08
-5.3642e-08
-5.42372e-08
-5.48443e-08
-5.54636e-08
-5.60953e-08
-5.67401e-08
-5.73981e-08
-5.80697e-08
-5.87554e-08
-5.94557e-08
-6.01708e-08
-6.09013e-08
-1.60941e-10
-2.71611e-08
-2.73595e-08
-2.75607e-08
-2.7765e-08
-2.79722e-08
-2.81826e-08
-2.83962e-08
-2.8613e-08
-2.88331e-08
-2.90567e-08
-2.92837e-08
-2.95143e-08
-2.97485e-08
-2.99865e-08
-3.02283e-08
-3.04741e-08
-3.07238e-08
-3.09777e-08
-3.12357e-08
-3.14981e-08
-3.1765e-08
-1.63276e-10
-2.73848e-08
-2.75838e-08
-2.77858e-08
-2.79907e-08
-2.81987e-08
-2.84097e-08
-2.8624e-08
-2.88414e-08
-2.90622e-08
-2.92864e-08
-2.95141e-08
-2.97453e-08
-2.99801e-08
-3.02187e-08
-3.04611e-08
-3.07074e-08
-3.09577e-08
-3.12121e-08
-3.14707e-08
-3.17336e-08
-3.20009e-08
-1.63129e-10
-2.76135e-08
-2.78135e-08
-2.80163e-08
-2.82222e-08
-2.8431e-08
-2.86431e-08
-2.88582e-08
-2.90766e-08
-2.92984e-08
-2.95235e-08
-2.97521e-08
-2.99843e-08
-3.02201e-08
-3.04596e-08
-3.0703e-08
-3.09502e-08
-3.12015e-08
-3.14568e-08
-3.17164e-08
-3.19802e-08
-3.22485e-08
-1.63006e-10
-2.7846e-08
-2.80469e-08
-2.82507e-08
-2.84575e-08
-2.86674e-08
-2.88803e-08
-2.90965e-08
-2.93159e-08
-2.95386e-08
-2.97647e-08
-2.99943e-08
-3.02274e-08
-3.04642e-08
-3.07048e-08
-3.09491e-08
-3.11974e-08
-3.14496e-08
-3.1706e-08
-3.19665e-08
-3.22314e-08
-3.25006e-08
-1.62884e-10
-2.80833e-08
-2.82852e-08
-2.84901e-08
-2.86979e-08
-2.89088e-08
-2.91228e-08
-2.934e-08
-2.95604e-08
-2.97842e-08
-3.00113e-08
-3.0242e-08
-3.04762e-08
-3.07141e-08
-3.09557e-08
-3.12011e-08
-3.14505e-08
-3.17038e-08
-3.19612e-08
-3.22229e-08
-3.24888e-08
-3.27592e-08
-1.62761e-10
-2.83254e-08
-2.85284e-08
-2.87344e-08
-2.89433e-08
-2.91553e-08
-2.93704e-08
-2.95887e-08
-2.98102e-08
-3.00351e-08
-3.02634e-08
-3.04952e-08
-3.07306e-08
-3.09696e-08
-3.12124e-08
-3.1459e-08
-3.17095e-08
-3.1964e-08
-3.22227e-08
-3.24855e-08
-3.27527e-08
-3.30242e-08
-1.62639e-10
-2.85724e-08
-2.87766e-08
-2.89836e-08
-2.91937e-08
-2.94069e-08
-2.96232e-08
-2.98427e-08
-3.00654e-08
-3.02915e-08
-3.05211e-08
-3.0754e-08
-3.09906e-08
-3.12309e-08
-3.14749e-08
-3.17228e-08
-3.19746e-08
-3.22303e-08
-3.24903e-08
-3.27544e-08
-3.30228e-08
-3.32958e-08
-1.62516e-10
-2.88197e-08
-2.9025e-08
-2.92334e-08
-2.94447e-08
-2.96591e-08
-2.98767e-08
-3.00974e-08
-3.03214e-08
-3.05488e-08
-3.07796e-08
-3.10139e-08
-3.12519e-08
-3.14934e-08
-3.17388e-08
-3.1988e-08
-3.22411e-08
-3.24983e-08
-3.27595e-08
-3.3025e-08
-3.32949e-08
-3.35692e-08
-1.62325e-10
-2.89155e-08
-2.9121e-08
-2.93295e-08
-2.95409e-08
-2.97555e-08
-2.99731e-08
-3.0194e-08
-3.04182e-08
-3.06457e-08
-3.08766e-08
-3.1111e-08
-3.1349e-08
-3.15907e-08
-3.18361e-08
-3.20854e-08
-3.23386e-08
-3.25957e-08
-3.28571e-08
-3.31226e-08
-3.33925e-08
-3.36668e-08
-1.62292e-10
-2.90083e-08
-2.92139e-08
-2.94224e-08
-2.96338e-08
-2.98484e-08
-3.0066e-08
-3.02869e-08
-3.0511e-08
-3.07385e-08
-3.09694e-08
-3.12038e-08
-3.14417e-08
-3.16833e-08
-3.19287e-08
-3.21778e-08
-3.24309e-08
-3.2688e-08
-3.29492e-08
-3.32146e-08
-3.34843e-08
-3.37584e-08
-1.62405e-10
-2.91032e-08
-2.93088e-08
-2.95173e-08
-2.97289e-08
-2.99435e-08
-3.01612e-08
-3.03821e-08
-3.06062e-08
-3.08337e-08
-3.10646e-08
-3.12989e-08
-3.15368e-08
-3.17784e-08
-3.20237e-08
-3.22728e-08
-3.25258e-08
-3.27828e-08
-3.30439e-08
-3.33092e-08
-3.35787e-08
-3.38527e-08
-1.62496e-10
-2.92002e-08
-2.94059e-08
-2.96145e-08
-2.98261e-08
-3.00408e-08
-3.02585e-08
-3.04795e-08
-3.07037e-08
-3.09312e-08
-3.11621e-08
-3.13965e-08
-3.16344e-08
-3.1876e-08
-3.21213e-08
-3.23704e-08
-3.26233e-08
-3.28803e-08
-3.31413e-08
-3.34065e-08
-3.3676e-08
-3.39499e-08
-1.62588e-10
-2.92992e-08
-2.95051e-08
-2.97138e-08
-2.99256e-08
-3.01403e-08
-3.03582e-08
-3.05792e-08
-3.08035e-08
-3.10311e-08
-3.12621e-08
-3.14965e-08
-3.17345e-08
-3.19761e-08
-3.22214e-08
-3.24705e-08
-3.27235e-08
-3.29804e-08
-3.32415e-08
-3.35066e-08
-3.37761e-08
-3.40499e-08
-1.62679e-10
-2.94004e-08
-2.96064e-08
-2.98153e-08
-3.00271e-08
-3.0242e-08
-3.04601e-08
-3.06812e-08
-3.09056e-08
-3.11333e-08
-3.13644e-08
-3.15989e-08
-3.1837e-08
-3.20787e-08
-3.2324e-08
-3.25732e-08
-3.28262e-08
-3.30833e-08
-3.33443e-08
-3.36095e-08
-3.38789e-08
-3.41527e-08
-1.6277e-10
-2.95036e-08
-2.97098e-08
-2.99189e-08
-3.01309e-08
-3.0346e-08
-3.05641e-08
-3.07855e-08
-3.101e-08
-3.12379e-08
-3.14691e-08
-3.17038e-08
-3.1942e-08
-3.21837e-08
-3.24293e-08
-3.26785e-08
-3.29316e-08
-3.31887e-08
-3.34498e-08
-3.3715e-08
-3.39846e-08
-3.42584e-08
-1.62861e-10
-2.96089e-08
-2.98153e-08
-3.00246e-08
-3.02369e-08
-3.04521e-08
-3.06705e-08
-3.0892e-08
-3.11167e-08
-3.13448e-08
-3.15762e-08
-3.1811e-08
-3.20494e-08
-3.22913e-08
-3.25369e-08
-3.27863e-08
-3.30396e-08
-3.32968e-08
-3.3558e-08
-3.38234e-08
-3.40929e-08
-3.43669e-08
-1.62952e-10
-2.97163e-08
-2.99229e-08
-3.01325e-08
-3.0345e-08
-3.05605e-08
-3.07791e-08
-3.10008e-08
-3.12258e-08
-3.1454e-08
-3.16856e-08
-3.19206e-08
-3.21592e-08
-3.24013e-08
-3.26472e-08
-3.28967e-08
-3.31502e-08
-3.34075e-08
-3.36689e-08
-3.39344e-08
-3.42041e-08
-3.44782e-08
-1.63042e-10
-2.98258e-08
-3.00327e-08
-3.02425e-08
-3.04552e-08
-3.0671e-08
-3.08899e-08
-3.11119e-08
-3.13371e-08
-3.15656e-08
-3.17974e-08
-3.20327e-08
-3.22715e-08
-3.25139e-08
-3.27599e-08
-3.30097e-08
-3.32633e-08
-3.35209e-08
-3.37825e-08
-3.40482e-08
-3.43181e-08
-3.45923e-08
-1.63132e-10
-2.99373e-08
-3.01445e-08
-3.03546e-08
-3.05677e-08
-3.07837e-08
-3.10029e-08
-3.12252e-08
-3.14507e-08
-3.16794e-08
-3.19116e-08
-3.21471e-08
-3.23862e-08
-3.26288e-08
-3.28752e-08
-3.31252e-08
-3.33791e-08
-3.36369e-08
-3.38987e-08
-3.41647e-08
-3.44348e-08
-3.47092e-08
-1.63222e-10
-3.00509e-08
-3.02584e-08
-3.04688e-08
-3.06822e-08
-3.08986e-08
-3.11181e-08
-3.13407e-08
-3.15666e-08
-3.17956e-08
-3.20281e-08
-3.2264e-08
-3.25033e-08
-3.27463e-08
-3.29929e-08
-3.32433e-08
-3.34974e-08
-3.37555e-08
-3.40176e-08
-3.42839e-08
-3.45542e-08
-3.4829e-08
-1.63312e-10
-3.01665e-08
-3.03744e-08
-3.05853e-08
-3.0799e-08
-3.10158e-08
-3.12356e-08
-3.14586e-08
-3.16847e-08
-3.19142e-08
-3.2147e-08
-3.23832e-08
-3.26229e-08
-3.28662e-08
-3.31132e-08
-3.33639e-08
-3.36184e-08
-3.38768e-08
-3.41393e-08
-3.44058e-08
-3.46765e-08
-3.49515e-08
-1.63401e-10
-3.02745e-08
-3.04827e-08
-3.06938e-08
-3.09078e-08
-3.11248e-08
-3.13449e-08
-3.15681e-08
-3.17945e-08
-3.20242e-08
-3.22572e-08
-3.24937e-08
-3.27336e-08
-3.29771e-08
-3.32243e-08
-3.34752e-08
-3.37299e-08
-3.39885e-08
-3.42511e-08
-3.45178e-08
-3.47887e-08
-3.50639e-08
-1.63501e-10
-3.29916e-08
-3.32185e-08
-3.34485e-08
-3.36817e-08
-3.39182e-08
-3.4158e-08
-3.44012e-08
-3.4648e-08
-3.48983e-08
-3.51522e-08
-3.54099e-08
-3.56713e-08
-3.59367e-08
-3.6206e-08
-3.64794e-08
-3.6757e-08
-3.70388e-08
-3.7325e-08
-3.76156e-08
-3.79108e-08
-3.82107e-08
-1.66763e-10
)
;

boundaryField
{
    inlet
    {
        type            calculated;
        value           uniform 0;
    }
    outlet2
    {
        type            calculated;
        value           uniform 0;
    }
    outlet1
    {
        type            calculated;
        value           uniform 0;
    }
    wall
    {
        type            calculated;
        value           uniform 0;
    }
    symmetryBottom
    {
        type            symmetry;
    }
    symmetryZ0
    {
        type            symmetry;
    }
    symmetryZ05
    {
        type            symmetry;
    }
}


// ************************************************************************* //
