/*--------------------------------*- C++ -*----------------------------------*\
| =========                 |                                                 |
| \\      /  F ield         | OpenFOAM: The Open Source CFD Toolbox           |
|  \\    /   O peration     | Version:  2412                                  |
|   \\  /    A nd           | Website:  www.openfoam.com                      |
|    \\/     M anipulation  |                                                 |
\*---------------------------------------------------------------------------*/
FoamFile
{
    version     2.0;
    format      ascii;
    arch        "LSB;label=32;scalar=64";
    class       volScalarField;
    location    "9.96134e-07";
    object      rho_dof3;
}
// * * * * * * * * * * * * * * * * * * * * * * * * * * * * * * * * * * * * * //

dimensions      [0 0 0 0 0 0 0];

internalField   nonuniform List<scalar> 
625
(
2.14529e-07
1.91292e-07
1.6553e-07
2.14533e-07
1.91296e-07
1.65533e-07
2.14533e-07
1.91296e-07
1.65533e-07
2.14533e-07
1.91296e-07
1.65533e-07
2.14533e-07
1.91296e-07
1.65533e-07
2.14533e-07
1.91296e-07
1.65533e-07
2.14533e-07
1.91296e-07
1.65533e-07
2.14533e-07
1.91296e-07
1.65533e-07
2.14533e-07
1.91296e-07
1.65533e-07
2.14533e-07
1.91296e-07
1.65533e-07
2.14533e-07
1.91296e-07
1.65533e-07
2.14533e-07
1.91296e-07
1.65533e-07
2.14533e-07
1.91296e-07
1.65533e-07
2.14533e-07
1.91296e-07
1.65533e-07
2.14533e-07
1.91296e-07
1.65533e-07
2.14533e-07
1.91296e-07
1.65533e-07
2.14533e-07
1.91296e-07
1.65533e-07
2.14533e-07
1.91296e-07
1.65533e-07
2.14533e-07
1.91296e-07
1.65533e-07
2.14533e-07
1.91296e-07
1.65533e-07
2.14533e-07
1.91296e-07
1.65533e-07
2.14533e-07
1.91296e-07
1.65533e-07
2.14533e-07
1.91296e-07
1.65533e-07
2.14533e-07
1.91296e-07
1.65323e-07
2.14586e-07
1.91339e-07
1.91028e-07
1.96835e-07
1.96837e-07
1.96839e-07
1.96841e-07
1.96843e-07
1.96845e-07
1.96847e-07
1.96849e-07
1.96852e-07
1.96854e-07
1.96856e-07
1.96858e-07
1.96861e-07
1.96863e-07
1.96865e-07
1.96868e-07
1.9687e-07
1.96873e-07
1.96875e-07
1.96878e-07
1.96881e-07
2.07822e-07
2.00907e-07
2.00937e-07
2.00967e-07
2.00998e-07
2.01029e-07
2.01061e-07
2.01093e-07
2.01126e-07
2.01159e-07
2.01193e-07
2.01227e-07
2.01262e-07
2.01297e-07
2.01333e-07
2.01369e-07
2.01406e-07
2.01443e-07
2.01482e-07
2.0152e-07
2.01559e-07
2.01599e-07
2.12822e-07
2.00748e-07
2.00777e-07
2.00806e-07
2.00836e-07
2.00866e-07
2.00897e-07
2.00928e-07
2.00959e-07
2.00991e-07
2.01023e-07
2.01056e-07
2.0109e-07
2.01124e-07
2.01158e-07
2.01193e-07
2.01229e-07
2.01265e-07
2.01301e-07
2.01338e-07
2.01376e-07
2.01415e-07
2.12622e-07
2.0059e-07
2.00617e-07
2.00646e-07
2.00674e-07
2.00703e-07
2.00733e-07
2.00763e-07
2.00793e-07
2.00823e-07
2.00855e-07
2.00886e-07
2.00918e-07
2.00951e-07
2.00984e-07
2.01018e-07
2.01052e-07
2.01086e-07
2.01122e-07
2.01157e-07
2.01194e-07
2.01231e-07
2.12425e-07
2.00432e-07
2.00458e-07
2.00485e-07
2.00513e-07
2.00541e-07
2.00569e-07
2.00597e-07
2.00627e-07
2.00656e-07
2.00686e-07
2.00716e-07
2.00747e-07
2.00778e-07
2.0081e-07
2.00842e-07
2.00875e-07
2.00909e-07
2.00942e-07
2.00977e-07
2.01011e-07
2.01047e-07
2.12228e-07
2.00274e-07
2.00299e-07
2.00325e-07
2.00351e-07
2.00378e-07
2.00405e-07
2.00433e-07
2.0046e-07
2.00489e-07
2.00517e-07
2.00546e-07
2.00576e-07
2.00606e-07
2.00636e-07
2.00667e-07
2.00699e-07
2.00731e-07
2.00763e-07
2.00796e-07
2.00829e-07
2.00863e-07
2.12032e-07
2.00116e-07
2.0014e-07
2.00165e-07
2.0019e-07
2.00216e-07
2.00242e-07
2.00268e-07
2.00294e-07
2.00321e-07
2.00349e-07
2.00377e-07
2.00405e-07
2.00434e-07
2.00463e-07
2.00492e-07
2.00522e-07
2.00553e-07
2.00584e-07
2.00615e-07
2.00647e-07
2.0068e-07
2.11835e-07
1.99958e-07
1.99981e-07
2.00005e-07
2.00029e-07
2.00053e-07
2.00078e-07
2.00103e-07
2.00129e-07
2.00154e-07
2.00181e-07
2.00207e-07
2.00234e-07
2.00262e-07
2.00289e-07
2.00318e-07
2.00346e-07
2.00375e-07
2.00405e-07
2.00435e-07
2.00465e-07
2.00496e-07
2.11639e-07
1.998e-07
1.99822e-07
1.99845e-07
1.99868e-07
1.99891e-07
1.99915e-07
1.99939e-07
1.99963e-07
1.99987e-07
2.00012e-07
2.00038e-07
2.00063e-07
2.00089e-07
2.00116e-07
2.00143e-07
2.0017e-07
2.00198e-07
2.00226e-07
2.00255e-07
2.00284e-07
2.00313e-07
2.11443e-07
1.99643e-07
1.99664e-07
1.99685e-07
1.99707e-07
1.99729e-07
1.99751e-07
1.99774e-07
1.99797e-07
1.9982e-07
1.99844e-07
1.99868e-07
1.99893e-07
1.99917e-07
1.99943e-07
1.99968e-07
1.99994e-07
2.0002e-07
2.00047e-07
2.00074e-07
2.00102e-07
2.0013e-07
2.11247e-07
1.99482e-07
1.99502e-07
1.99522e-07
1.99543e-07
1.99564e-07
1.99585e-07
1.99607e-07
1.99628e-07
1.9965e-07
1.99673e-07
1.99696e-07
1.99719e-07
1.99742e-07
1.99766e-07
1.9979e-07
1.99815e-07
1.9984e-07
1.99865e-07
1.99891e-07
1.99917e-07
1.99944e-07
2.11047e-07
1.99322e-07
1.99341e-07
1.9936e-07
1.99379e-07
1.99399e-07
1.99419e-07
1.99439e-07
1.9946e-07
1.99481e-07
1.99502e-07
1.99523e-07
1.99545e-07
1.99567e-07
1.9959e-07
1.99613e-07
1.99636e-07
1.99659e-07
1.99683e-07
1.99708e-07
1.99732e-07
1.99758e-07
2.10848e-07
1.99161e-07
1.99179e-07
1.99197e-07
1.99216e-07
1.99234e-07
1.99253e-07
1.99272e-07
1.99291e-07
1.99311e-07
1.99331e-07
1.99351e-07
1.99372e-07
1.99393e-07
1.99414e-07
1.99435e-07
1.99457e-07
1.99479e-07
1.99502e-07
1.99525e-07
1.99548e-07
1.99571e-07
2.1065e-07
1.99001e-07
1.99018e-07
1.99035e-07
1.99052e-07
1.99069e-07
1.99087e-07
1.99105e-07
1.99123e-07
1.99141e-07
1.9916e-07
1.99179e-07
1.99198e-07
1.99218e-07
1.99238e-07
1.99258e-07
1.99278e-07
1.99299e-07
1.9932e-07
1.99342e-07
1.99363e-07
1.99385e-07
2.10451e-07
1.98841e-07
1.98857e-07
1.98873e-07
1.98889e-07
1.98905e-07
1.98921e-07
1.98938e-07
1.98955e-07
1.98972e-07
1.98989e-07
1.99007e-07
1.99025e-07
1.99043e-07
1.99062e-07
1.99081e-07
1.991e-07
1.99119e-07
1.99139e-07
1.99159e-07
1.99179e-07
1.992e-07
2.10253e-07
1.98681e-07
1.98696e-07
1.9871e-07
1.98725e-07
1.9874e-07
1.98756e-07
1.98771e-07
1.98787e-07
1.98803e-07
1.98819e-07
1.98835e-07
1.98852e-07
1.98869e-07
1.98886e-07
1.98904e-07
1.98921e-07
1.98939e-07
1.98957e-07
1.98976e-07
1.98995e-07
1.99014e-07
2.10054e-07
1.98522e-07
1.98535e-07
1.98548e-07
1.98562e-07
1.98576e-07
1.9859e-07
1.98604e-07
1.98619e-07
1.98634e-07
1.98648e-07
1.98664e-07
1.98679e-07
1.98695e-07
1.9871e-07
1.98727e-07
1.98743e-07
1.98759e-07
1.98776e-07
1.98793e-07
1.98811e-07
1.98829e-07
2.09856e-07
1.98362e-07
1.98374e-07
1.98386e-07
1.98399e-07
1.98412e-07
1.98425e-07
1.98438e-07
1.98451e-07
1.98465e-07
1.98478e-07
1.98492e-07
1.98506e-07
1.9852e-07
1.98535e-07
1.9855e-07
1.98565e-07
1.9858e-07
1.98595e-07
1.98611e-07
1.98627e-07
1.98643e-07
2.09658e-07
1.98202e-07
1.98213e-07
1.98225e-07
1.98236e-07
1.98248e-07
1.98259e-07
1.98271e-07
1.98283e-07
1.98296e-07
1.98308e-07
1.98321e-07
1.98333e-07
1.98346e-07
1.9836e-07
1.98373e-07
1.98387e-07
1.984e-07
1.98414e-07
1.98429e-07
1.98443e-07
1.98458e-07
2.0946e-07
1.98043e-07
1.98053e-07
1.98063e-07
1.98073e-07
1.98084e-07
1.98094e-07
1.98105e-07
1.98116e-07
1.98127e-07
1.98138e-07
1.98149e-07
1.98161e-07
1.98173e-07
1.98184e-07
1.98196e-07
1.98209e-07
1.98221e-07
1.98234e-07
1.98247e-07
1.9826e-07
1.98273e-07
2.09262e-07
1.97883e-07
1.97892e-07
1.97901e-07
1.9791e-07
1.9792e-07
1.97929e-07
1.97939e-07
1.97948e-07
1.97958e-07
1.97968e-07
1.97978e-07
1.97988e-07
1.97999e-07
1.98009e-07
1.9802e-07
1.98031e-07
1.98042e-07
1.98053e-07
1.98065e-07
1.98076e-07
1.98088e-07
2.09065e-07
1.97724e-07
1.97732e-07
1.9774e-07
1.97748e-07
1.97756e-07
1.97764e-07
1.97772e-07
1.97781e-07
1.97789e-07
1.97798e-07
1.97807e-07
1.97816e-07
1.97825e-07
1.97834e-07
1.97844e-07
1.97853e-07
1.97863e-07
1.97873e-07
1.97883e-07
1.97893e-07
1.97903e-07
2.08868e-07
1.97565e-07
1.97572e-07
1.97578e-07
1.97585e-07
1.97592e-07
1.97599e-07
1.97606e-07
1.97614e-07
1.97621e-07
1.97628e-07
1.97636e-07
1.97644e-07
1.97652e-07
1.9766e-07
1.97668e-07
1.97676e-07
1.97684e-07
1.97692e-07
1.97701e-07
1.9771e-07
1.97719e-07
2.0867e-07
1.97406e-07
1.97412e-07
1.97417e-07
1.97423e-07
1.97429e-07
1.97435e-07
1.97441e-07
1.97447e-07
1.97453e-07
1.97459e-07
1.97465e-07
1.97472e-07
1.97478e-07
1.97485e-07
1.97492e-07
1.97498e-07
1.97505e-07
1.97512e-07
1.9752e-07
1.97527e-07
1.97534e-07
2.08473e-07
1.97292e-07
1.97297e-07
1.97302e-07
1.97307e-07
1.97312e-07
1.97317e-07
1.97322e-07
1.97327e-07
1.97332e-07
1.97338e-07
1.97343e-07
1.97349e-07
1.97354e-07
1.9736e-07
1.97366e-07
1.97372e-07
1.97378e-07
1.97384e-07
1.9739e-07
1.97396e-07
1.97402e-07
2.08326e-07
)
;

boundaryField
{
    inlet
    {
        type            calculated;
        value           uniform 0;
    }
    outlet2
    {
        type            calculated;
        value           uniform 0;
    }
    outlet1
    {
        type            calculated;
        value           uniform 0;
    }
    wall
    {
        type            calculated;
        value           uniform 0;
    }
    symmetryBottom
    {
        type            symmetry;
    }
    symmetryZ0
    {
        type            symmetry;
    }
    symmetryZ05
    {
        type            symmetry;
    }
}


// ************************************************************************* //
