/*--------------------------------*- C++ -*----------------------------------*\
| =========                 |                                                 |
| \\      /  F ield         | OpenFOAM: The Open Source CFD Toolbox           |
|  \\    /   O peration     | Version:  2412                                  |
|   \\  /    A nd           | Website:  www.openfoam.com                      |
|    \\/     M anipulation  |                                                 |
\*---------------------------------------------------------------------------*/
FoamFile
{
    version     2.0;
    format      ascii;
    arch        "LSB;label=32;scalar=64";
    class       volVectorField;
    location    "9.96134e-07";
    object      rhoU_dof0;
}
// * * * * * * * * * * * * * * * * * * * * * * * * * * * * * * * * * * * * * //

dimensions      [0 0 0 0 0 0 0];

internalField   nonuniform List<vector> 
625
(
(0.0752872 -2.97899e-07 -6.83937e-07)
(0.063185 -4.56132e-07 -7.26596e-07)
(0.063185 -4.56899e-07 8.45891e-09)
(0.0752889 -5.69564e-05 -6.83907e-07)
(0.0631866 -5.067e-05 -7.26571e-07)
(0.0631866 -5.06709e-05 -1.72563e-10)
(0.0752872 -5.67857e-05 -6.83922e-07)
(0.063185 -5.05137e-05 -7.26588e-07)
(0.0631851 -5.05144e-05 -6.71426e-11)
(0.0752873 -5.67863e-05 -6.83922e-07)
(0.0631851 -5.05143e-05 -7.26588e-07)
(0.0631851 -5.0515e-05 -6.7487e-11)
(0.0752873 -5.67863e-05 -6.83922e-07)
(0.0631851 -5.05143e-05 -7.26588e-07)
(0.0631851 -5.0515e-05 -6.74861e-11)
(0.0752873 -5.67863e-05 -6.83922e-07)
(0.0631851 -5.05143e-05 -7.26588e-07)
(0.0631851 -5.0515e-05 -6.74861e-11)
(0.0752873 -5.67863e-05 -6.83922e-07)
(0.0631851 -5.05143e-05 -7.26588e-07)
(0.0631851 -5.0515e-05 -6.74861e-11)
(0.0752873 -5.67863e-05 -6.83922e-07)
(0.0631851 -5.05143e-05 -7.26588e-07)
(0.0631851 -5.0515e-05 -6.74861e-11)
(0.0752873 -5.67863e-05 -6.83922e-07)
(0.0631851 -5.05143e-05 -7.26588e-07)
(0.0631851 -5.0515e-05 -6.74861e-11)
(0.0752873 -5.67863e-05 -6.83922e-07)
(0.0631851 -5.05143e-05 -7.26588e-07)
(0.0631851 -5.0515e-05 -6.74861e-11)
(0.0752873 -5.67863e-05 -6.83922e-07)
(0.0631851 -5.05143e-05 -7.26588e-07)
(0.0631851 -5.0515e-05 -6.74861e-11)
(0.0752873 -5.67863e-05 -6.83922e-07)
(0.0631851 -5.05143e-05 -7.26588e-07)
(0.0631851 -5.0515e-05 -6.74861e-11)
(0.0752873 -5.67863e-05 -6.83922e-07)
(0.0631851 -5.05143e-05 -7.26588e-07)
(0.0631851 -5.0515e-05 -6.74861e-11)
(0.0752873 -5.67863e-05 -6.83922e-07)
(0.0631851 -5.05143e-05 -7.26588e-07)
(0.0631851 -5.0515e-05 -6.74861e-11)
(0.0752873 -5.67863e-05 -6.83922e-07)
(0.0631851 -5.05143e-05 -7.26588e-07)
(0.0631851 -5.0515e-05 -6.74861e-11)
(0.0752873 -5.67863e-05 -6.83922e-07)
(0.0631851 -5.05143e-05 -7.26588e-07)
(0.0631851 -5.0515e-05 -6.74861e-11)
(0.0752873 -5.67863e-05 -6.83922e-07)
(0.0631851 -5.05143e-05 -7.26588e-07)
(0.0631851 -5.0515e-05 -6.74861e-11)
(0.0752873 -5.67863e-05 -6.83922e-07)
(0.0631851 -5.05143e-05 -7.26588e-07)
(0.0631851 -5.0515e-05 -6.74861e-11)
(0.0752873 -5.67863e-05 -6.83922e-07)
(0.0631851 -5.05143e-05 -7.26588e-07)
(0.0631851 -5.0515e-05 -6.74861e-11)
(0.0752873 -5.67863e-05 -6.83922e-07)
(0.0631851 -5.05143e-05 -7.26588e-07)
(0.0631851 -5.0515e-05 -6.74861e-11)
(0.0752873 -5.67863e-05 -6.83922e-07)
(0.0631851 -5.05143e-05 -7.26588e-07)
(0.0631851 -5.0515e-05 -6.74861e-11)
(0.0752873 -5.67863e-05 -6.83922e-07)
(0.0631851 -5.05143e-05 -7.26588e-07)
(0.0631851 -5.0515e-05 -6.74893e-11)
(0.0752873 -5.67863e-05 -6.83922e-07)
(0.0631851 -5.05143e-05 -7.26588e-07)
(0.0631851 -5.0515e-05 -6.35729e-11)
(0.0752873 -5.67863e-05 -6.83922e-07)
(0.0631851 -5.0515e-05 -7.26588e-07)
(0.0631851 -5.05196e-05 -4.98923e-09)
(0.0752878 -5.68203e-05 -6.84232e-07)
(0.0631825 -5.0363e-05 -7.26905e-07)
(0.0631826 -5.03676e-05 -7.29851e-07)
(0.0649029 6.22157e-06 -8.20334e-07)
(0.0649018 6.31875e-06 -8.20902e-07)
(0.0649008 6.41819e-06 -8.2148e-07)
(0.0648997 6.51995e-06 -8.22066e-07)
(0.0648987 6.62411e-06 -8.22661e-07)
(0.0648976 6.73074e-06 -8.23265e-07)
(0.0648965 6.83992e-06 -8.23879e-07)
(0.0648954 6.95173e-06 -8.24503e-07)
(0.0648943 7.06626e-06 -8.25137e-07)
(0.0648931 7.18359e-06 -8.2578e-07)
(0.064892 7.30382e-06 -8.26435e-07)
(0.0648908 7.42704e-06 -8.271e-07)
(0.0648896 7.55335e-06 -8.27776e-07)
(0.0648885 7.68286e-06 -8.28463e-07)
(0.0648873 7.81567e-06 -8.29161e-07)
(0.064886 7.95189e-06 -8.29872e-07)
(0.0648848 8.09165e-06 -8.30594e-07)
(0.0648836 8.23506e-06 -8.3133e-07)
(0.0648823 8.38226e-06 -8.32077e-07)
(0.064881 8.53337e-06 -8.32838e-07)
(0.0648798 8.68854e-06 -8.33613e-07)
(0.0649471 8.68955e-06 -1.31844e-08)
(0.0664663 -4.99436e-05 -7.6294e-07)
(0.0664761 -5.02671e-05 -7.63064e-07)
(0.0664861 -5.05947e-05 -7.63191e-07)
(0.0664962 -5.09265e-05 -7.63319e-07)
(0.0665064 -5.12626e-05 -7.63449e-07)
(0.0665168 -5.1603e-05 -7.63581e-07)
(0.0665274 -5.19479e-05 -7.63714e-07)
(0.0665381 -5.22973e-05 -7.6385e-07)
(0.0665489 -5.26512e-05 -7.63988e-07)
(0.0665599 -5.30099e-05 -7.64127e-07)
(0.0665711 -5.33734e-05 -7.64269e-07)
(0.0665825 -5.37418e-05 -7.64413e-07)
(0.066594 -5.41151e-05 -7.64559e-07)
(0.0666057 -5.44935e-05 -7.64708e-07)
(0.0666176 -5.4877e-05 -7.64859e-07)
(0.0666297 -5.52659e-05 -7.65012e-07)
(0.066642 -5.56601e-05 -7.65167e-07)
(0.0666545 -5.60598e-05 -7.65325e-07)
(0.0666671 -5.64651e-05 -7.65485e-07)
(0.06668 -5.68761e-05 -7.65648e-07)
(0.0666931 -5.72929e-05 -7.65814e-07)
(0.0667623 -5.73501e-05 -3.56169e-09)
(0.066386 -5.32747e-05 -7.62383e-07)
(0.0663951 -5.36497e-05 -7.62503e-07)
(0.0664043 -5.40299e-05 -7.62625e-07)
(0.0664137 -5.44157e-05 -7.62749e-07)
(0.0664232 -5.48069e-05 -7.62874e-07)
(0.0664328 -5.52039e-05 -7.63002e-07)
(0.0664426 -5.56066e-05 -7.63131e-07)
(0.0664525 -5.60153e-05 -7.63262e-07)
(0.0664626 -5.643e-05 -7.63395e-07)
(0.0664728 -5.68509e-05 -7.6353e-07)
(0.0664831 -5.72781e-05 -7.63667e-07)
(0.0664936 -5.77118e-05 -7.63806e-07)
(0.0665043 -5.81522e-05 -7.63947e-07)
(0.0665151 -5.85993e-05 -7.64091e-07)
(0.0665262 -5.90533e-05 -7.64236e-07)
(0.0665373 -5.95145e-05 -7.64384e-07)
(0.0665487 -5.99829e-05 -7.64534e-07)
(0.0665602 -6.04587e-05 -7.64687e-07)
(0.0665719 -6.09422e-05 -7.64841e-07)
(0.0665838 -6.14335e-05 -7.64999e-07)
(0.0665959 -6.19327e-05 -7.65159e-07)
(0.066665 -6.19925e-05 -2.42532e-09)
(0.0663264 -5.31968e-05 -7.61859e-07)
(0.0663351 -5.35704e-05 -7.61975e-07)
(0.0663439 -5.39492e-05 -7.62094e-07)
(0.0663529 -5.43335e-05 -7.62214e-07)
(0.0663619 -5.47232e-05 -7.62335e-07)
(0.0663711 -5.51186e-05 -7.62459e-07)
(0.0663804 -5.55197e-05 -7.62584e-07)
(0.0663899 -5.59268e-05 -7.62711e-07)
(0.0663995 -5.63398e-05 -7.6284e-07)
(0.0664092 -5.6759e-05 -7.62971e-07)
(0.0664191 -5.71845e-05 -7.63104e-07)
(0.0664291 -5.76163e-05 -7.63239e-07)
(0.0664393 -5.80548e-05 -7.63376e-07)
(0.0664497 -5.85e-05 -7.63515e-07)
(0.0664602 -5.89521e-05 -7.63656e-07)
(0.0664708 -5.94112e-05 -7.63799e-07)
(0.0664816 -5.98775e-05 -7.63944e-07)
(0.0664926 -6.03512e-05 -7.64092e-07)
(0.0665038 -6.08324e-05 -7.64242e-07)
(0.0665152 -6.13214e-05 -7.64395e-07)
(0.0665267 -6.18183e-05 -7.6455e-07)
(0.0665958 -6.18778e-05 -2.31983e-09)
(0.0662669 -5.31572e-05 -7.61335e-07)
(0.0662752 -5.35303e-05 -7.61448e-07)
(0.0662836 -5.39086e-05 -7.61562e-07)
(0.0662921 -5.42922e-05 -7.61679e-07)
(0.0663007 -5.46814e-05 -7.61796e-07)
(0.0663095 -5.50762e-05 -7.61916e-07)
(0.0663183 -5.54767e-05 -7.62037e-07)
(0.0663273 -5.58831e-05 -7.6216e-07)
(0.0663365 -5.62955e-05 -7.62285e-07)
(0.0663457 -5.67141e-05 -7.62412e-07)
(0.0663551 -5.71389e-05 -7.62541e-07)
(0.0663647 -5.75701e-05 -7.62671e-07)
(0.0663744 -5.80078e-05 -7.62804e-07)
(0.0663842 -5.84523e-05 -7.62938e-07)
(0.0663942 -5.89036e-05 -7.63075e-07)
(0.0664044 -5.9362e-05 -7.63213e-07)
(0.0664147 -5.98276e-05 -7.63354e-07)
(0.0664251 -6.03005e-05 -7.63497e-07)
(0.0664358 -6.07809e-05 -7.63643e-07)
(0.0664466 -6.12691e-05 -7.63791e-07)
(0.0664575 -6.17651e-05 -7.63941e-07)
(0.0665265 -6.18245e-05 -2.21229e-09)
(0.0662075 -5.31175e-05 -7.60811e-07)
(0.0662153 -5.349e-05 -7.6092e-07)
(0.0662233 -5.38677e-05 -7.61031e-07)
(0.0662314 -5.42508e-05 -7.61144e-07)
(0.0662395 -5.46394e-05 -7.61258e-07)
(0.0662478 -5.50335e-05 -7.61373e-07)
(0.0662563 -5.54335e-05 -7.61491e-07)
(0.0662648 -5.58392e-05 -7.6161e-07)
(0.0662735 -5.6251e-05 -7.61731e-07)
(0.0662823 -5.66689e-05 -7.61853e-07)
(0.0662912 -5.7093e-05 -7.61978e-07)
(0.0663003 -5.75235e-05 -7.62104e-07)
(0.0663095 -5.79606e-05 -7.62232e-07)
(0.0663188 -5.84043e-05 -7.62362e-07)
(0.0663283 -5.88549e-05 -7.62494e-07)
(0.066338 -5.93125e-05 -7.62629e-07)
(0.0663477 -5.97773e-05 -7.62765e-07)
(0.0663577 -6.02494e-05 -7.62903e-07)
(0.0663678 -6.07291e-05 -7.63044e-07)
(0.066378 -6.12164e-05 -7.63187e-07)
(0.0663885 -6.17116e-05 -7.63332e-07)
(0.0664574 -6.17708e-05 -2.10464e-09)
(0.0661481 -5.30778e-05 -7.60288e-07)
(0.0661555 -5.34497e-05 -7.60393e-07)
(0.066163 -5.38268e-05 -7.60501e-07)
(0.0661707 -5.42093e-05 -7.60609e-07)
(0.0661784 -5.45973e-05 -7.60719e-07)
(0.0661863 -5.49909e-05 -7.60831e-07)
(0.0661943 -5.53902e-05 -7.60945e-07)
(0.0662024 -5.57954e-05 -7.6106e-07)
(0.0662106 -5.62065e-05 -7.61176e-07)
(0.0662189 -5.66237e-05 -7.61295e-07)
(0.0662274 -5.70471e-05 -7.61415e-07)
(0.0662359 -5.7477e-05 -7.61537e-07)
(0.0662447 -5.79133e-05 -7.61661e-07)
(0.0662535 -5.83564e-05 -7.61787e-07)
(0.0662625 -5.88062e-05 -7.61914e-07)
(0.0662716 -5.92631e-05 -7.62044e-07)
(0.0662809 -5.97271e-05 -7.62176e-07)
(0.0662903 -6.01984e-05 -7.62309e-07)
(0.0662998 -6.06772e-05 -7.62445e-07)
(0.0663096 -6.11637e-05 -7.62583e-07)
(0.0663194 -6.16581e-05 -7.62724e-07)
(0.0663883 -6.17172e-05 -1.99691e-09)
(0.0660887 -5.3038e-05 -7.59765e-07)
(0.0660957 -5.34094e-05 -7.59867e-07)
(0.0661028 -5.3786e-05 -7.5997e-07)
(0.06611 -5.41679e-05 -7.60075e-07)
(0.0661173 -5.45553e-05 -7.60181e-07)
(0.0661248 -5.49483e-05 -7.60289e-07)
(0.0661323 -5.5347e-05 -7.60399e-07)
(0.0661399 -5.57515e-05 -7.6051e-07)
(0.0661477 -5.6162e-05 -7.60622e-07)
(0.0661556 -5.65785e-05 -7.60737e-07)
(0.0661635 -5.70013e-05 -7.60853e-07)
(0.0661717 -5.74304e-05 -7.6097e-07)
(0.0661799 -5.78661e-05 -7.6109e-07)
(0.0661882 -5.83084e-05 -7.61211e-07)
(0.0661967 -5.87575e-05 -7.61335e-07)
(0.0662053 -5.92136e-05 -7.6146e-07)
(0.0662141 -5.96769e-05 -7.61587e-07)
(0.0662229 -6.01474e-05 -7.61716e-07)
(0.066232 -6.06254e-05 -7.61847e-07)
(0.0662411 -6.11111e-05 -7.6198e-07)
(0.0662505 -6.16046e-05 -7.62116e-07)
(0.0663193 -6.16635e-05 -1.88912e-09)
(0.0660294 -5.29984e-05 -7.59242e-07)
(0.066036 -5.33692e-05 -7.5934e-07)
(0.0660427 -5.37452e-05 -7.5944e-07)
(0.0660494 -5.41265e-05 -7.59541e-07)
(0.0660563 -5.45134e-05 -7.59644e-07)
(0.0660633 -5.49057e-05 -7.59748e-07)
(0.0660704 -5.53038e-05 -7.59853e-07)
(0.0660776 -5.57077e-05 -7.5996e-07)
(0.0660849 -5.61175e-05 -7.60069e-07)
(0.0660923 -5.65334e-05 -7.60179e-07)
(0.0660998 -5.69555e-05 -7.60291e-07)
(0.0661074 -5.7384e-05 -7.60404e-07)
(0.0661151 -5.78189e-05 -7.60519e-07)
(0.066123 -5.82605e-05 -7.60636e-07)
(0.066131 -5.87089e-05 -7.60755e-07)
(0.0661391 -5.91643e-05 -7.60876e-07)
(0.0661473 -5.96267e-05 -7.60998e-07)
(0.0661557 -6.00965e-05 -7.61123e-07)
(0.0661642 -6.05737e-05 -7.61249e-07)
(0.0661728 -6.10585e-05 -7.61378e-07)
(0.0661815 -6.15512e-05 -7.61508e-07)
(0.0662503 -6.161e-05 -1.78135e-09)
(0.0659701 -5.29584e-05 -7.58719e-07)
(0.0659763 -5.33287e-05 -7.58814e-07)
(0.0659825 -5.37041e-05 -7.5891e-07)
(0.0659889 -5.40849e-05 -7.59007e-07)
(0.0659954 -5.44711e-05 -7.59106e-07)
(0.0660019 -5.48629e-05 -7.59206e-07)
(0.0660085 -5.52604e-05 -7.59308e-07)
(0.0660153 -5.56636e-05 -7.59411e-07)
(0.0660221 -5.60728e-05 -7.59515e-07)
(0.066029 -5.64881e-05 -7.59621e-07)
(0.0660361 -5.69095e-05 -7.59729e-07)
(0.0660432 -5.73373e-05 -7.59838e-07)
(0.0660505 -5.77715e-05 -7.59949e-07)
(0.0660578 -5.82124e-05 -7.60062e-07)
(0.0660653 -5.866e-05 -7.60176e-07)
(0.0660729 -5.91146e-05 -7.60292e-07)
(0.0660806 -5.95763e-05 -7.6041e-07)
(0.0660885 -6.00453e-05 -7.6053e-07)
(0.0660964 -6.05217e-05 -7.60651e-07)
(0.0661045 -6.10057e-05 -7.60775e-07)
(0.0661127 -6.14976e-05 -7.609e-07)
(0.0661814 -6.15561e-05 -1.66361e-09)
(0.065911 -5.29101e-05 -7.58176e-07)
(0.0659168 -5.32797e-05 -7.58267e-07)
(0.0659226 -5.36546e-05 -7.58359e-07)
(0.0659285 -5.40347e-05 -7.58452e-07)
(0.0659346 -5.44203e-05 -7.58547e-07)
(0.0659407 -5.48114e-05 -7.58643e-07)
(0.0659469 -5.52082e-05 -7.5874e-07)
(0.0659532 -5.56107e-05 -7.58839e-07)
(0.0659595 -5.60192e-05 -7.5894e-07)
(0.065966 -5.64337e-05 -7.59041e-07)
(0.0659726 -5.68544e-05 -7.59145e-07)
(0.0659792 -5.72814e-05 -7.5925e-07)
(0.065986 -5.77149e-05 -7.59356e-07)
(0.0659929 -5.8155e-05 -7.59464e-07)
(0.0659999 -5.86018e-05 -7.59574e-07)
(0.0660069 -5.90556e-05 -7.59685e-07)
(0.0660141 -5.95164e-05 -7.59798e-07)
(0.0660214 -5.99845e-05 -7.59913e-07)
(0.0660289 -6.046e-05 -7.6003e-07)
(0.0660364 -6.09432e-05 -7.60149e-07)
(0.0660441 -6.14341e-05 -7.60269e-07)
(0.0661127 -6.14919e-05 -9.23335e-10)
(0.0658519 -5.28617e-05 -7.57632e-07)
(0.0658573 -5.32307e-05 -7.57719e-07)
(0.0658627 -5.36049e-05 -7.57807e-07)
(0.0658682 -5.39844e-05 -7.57897e-07)
(0.0658738 -5.43693e-05 -7.57988e-07)
(0.0658795 -5.47598e-05 -7.5808e-07)
(0.0658853 -5.51559e-05 -7.58173e-07)
(0.0658911 -5.55577e-05 -7.58268e-07)
(0.065897 -5.59655e-05 -7.58364e-07)
(0.065903 -5.63793e-05 -7.58461e-07)
(0.0659091 -5.67992e-05 -7.5856e-07)
(0.0659153 -5.72255e-05 -7.58661e-07)
(0.0659216 -5.76582e-05 -7.58763e-07)
(0.065928 -5.80975e-05 -7.58866e-07)
(0.0659345 -5.85435e-05 -7.58971e-07)
(0.065941 -5.89965e-05 -7.59078e-07)
(0.0659477 -5.94565e-05 -7.59186e-07)
(0.0659545 -5.99237e-05 -7.59297e-07)
(0.0659614 -6.03983e-05 -7.59408e-07)
(0.0659684 -6.08806e-05 -7.59522e-07)
(0.0659755 -6.13705e-05 -7.59637e-07)
(0.0660441 -6.14283e-05 -8.53317e-10)
(0.0657929 -5.28132e-05 -7.57089e-07)
(0.0657979 -5.31816e-05 -7.57172e-07)
(0.0658029 -5.35552e-05 -7.57256e-07)
(0.065808 -5.3934e-05 -7.57342e-07)
(0.0658131 -5.43183e-05 -7.57429e-07)
(0.0658184 -5.47081e-05 -7.57517e-07)
(0.0658237 -5.51035e-05 -7.57606e-07)
(0.0658291 -5.55047e-05 -7.57696e-07)
(0.0658345 -5.59117e-05 -7.57788e-07)
(0.0658401 -5.63248e-05 -7.57882e-07)
(0.0658457 -5.6744e-05 -7.57976e-07)
(0.0658514 -5.71695e-05 -7.58072e-07)
(0.0658572 -5.76014e-05 -7.5817e-07)
(0.0658631 -5.80399e-05 -7.58269e-07)
(0.0658691 -5.84851e-05 -7.58369e-07)
(0.0658752 -5.89372e-05 -7.58471e-07)
(0.0658814 -5.93964e-05 -7.58575e-07)
(0.0658876 -5.98628e-05 -7.5868e-07)
(0.065894 -6.03365e-05 -7.58787e-07)
(0.0659004 -6.08178e-05 -7.58896e-07)
(0.065907 -6.13069e-05 -7.59006e-07)
(0.0659755 -6.13646e-05 -7.9442e-10)
(0.065734 -5.27646e-05 -7.56546e-07)
(0.0657385 -5.31324e-05 -7.56625e-07)
(0.0657431 -5.35054e-05 -7.56705e-07)
(0.0657478 -5.38836e-05 -7.56787e-07)
(0.0657525 -5.42672e-05 -7.5687e-07)
(0.0657573 -5.46563e-05 -7.56954e-07)
(0.0657622 -5.5051e-05 -7.57039e-07)
(0.0657671 -5.54515e-05 -7.57125e-07)
(0.0657721 -5.58578e-05 -7.57213e-07)
(0.0657772 -5.62701e-05 -7.57302e-07)
(0.0657824 -5.66886e-05 -7.57392e-07)
(0.0657876 -5.71134e-05 -7.57484e-07)
(0.0657929 -5.75445e-05 -7.57577e-07)
(0.0657983 -5.79822e-05 -7.57672e-07)
(0.0658038 -5.84266e-05 -7.57767e-07)
(0.0658094 -5.88779e-05 -7.57865e-07)
(0.065815 -5.93362e-05 -7.57964e-07)
(0.0658208 -5.98017e-05 -7.58064e-07)
(0.0658266 -6.02746e-05 -7.58166e-07)
(0.0658326 -6.0755e-05 -7.5827e-07)
(0.0658386 -6.12431e-05 -7.58375e-07)
(0.065907 -6.13008e-05 -7.35651e-10)
(0.0656751 -5.27159e-05 -7.56003e-07)
(0.0656792 -5.30831e-05 -7.56078e-07)
(0.0656834 -5.34554e-05 -7.56155e-07)
(0.0656876 -5.3833e-05 -7.56233e-07)
(0.0656919 -5.4216e-05 -7.56312e-07)
(0.0656963 -5.46044e-05 -7.56391e-07)
(0.0657007 -5.49984e-05 -7.56473e-07)
(0.0657052 -5.53982e-05 -7.56555e-07)
(0.0657098 -5.58038e-05 -7.56638e-07)
(0.0657144 -5.62154e-05 -7.56723e-07)
(0.0657191 -5.66332e-05 -7.56809e-07)
(0.0657239 -5.70571e-05 -7.56896e-07)
(0.0657287 -5.74875e-05 -7.56985e-07)
(0.0657336 -5.79244e-05 -7.57075e-07)
(0.0657386 -5.8368e-05 -7.57166e-07)
(0.0657437 -5.88185e-05 -7.57259e-07)
(0.0657488 -5.9276e-05 -7.57353e-07)
(0.065754 -5.97406e-05 -7.57448e-07)
(0.0657593 -6.02126e-05 -7.57546e-07)
(0.0657647 -6.06921e-05 -7.57644e-07)
(0.0657702 -6.11793e-05 -7.57745e-07)
(0.0658386 -6.12369e-05 -6.77019e-10)
(0.0656162 -5.26672e-05 -7.5546e-07)
(0.0656199 -5.30337e-05 -7.55532e-07)
(0.0656237 -5.34054e-05 -7.55605e-07)
(0.0656275 -5.37823e-05 -7.55679e-07)
(0.0656314 -5.41646e-05 -7.55753e-07)
(0.0656353 -5.45524e-05 -7.55829e-07)
(0.0656393 -5.49458e-05 -7.55906e-07)
(0.0656433 -5.53448e-05 -7.55985e-07)
(0.0656474 -5.57497e-05 -7.56064e-07)
(0.0656516 -5.61606e-05 -7.56144e-07)
(0.0656558 -5.65776e-05 -7.56226e-07)
(0.0656601 -5.70008e-05 -7.56309e-07)
(0.0656645 -5.74304e-05 -7.56393e-07)
(0.0656689 -5.78665e-05 -7.56478e-07)
(0.0656734 -5.83093e-05 -7.56565e-07)
(0.065678 -5.8759e-05 -7.56653e-07)
(0.0656826 -5.92156e-05 -7.56742e-07)
(0.0656873 -5.96793e-05 -7.56833e-07)
(0.0656921 -6.01504e-05 -7.56925e-07)
(0.065697 -6.0629e-05 -7.57019e-07)
(0.0657019 -6.11153e-05 -7.57114e-07)
(0.0657702 -6.11729e-05 -6.18523e-10)
(0.0655574 -5.26183e-05 -7.54918e-07)
(0.0655607 -5.29842e-05 -7.54986e-07)
(0.065564 -5.33553e-05 -7.55055e-07)
(0.0655674 -5.37316e-05 -7.55125e-07)
(0.0655709 -5.41132e-05 -7.55196e-07)
(0.0655744 -5.45003e-05 -7.55268e-07)
(0.0655779 -5.4893e-05 -7.55341e-07)
(0.0655815 -5.52914e-05 -7.55415e-07)
(0.0655852 -5.56956e-05 -7.5549e-07)
(0.0655889 -5.61057e-05 -7.55566e-07)
(0.0655927 -5.65219e-05 -7.55643e-07)
(0.0655965 -5.69444e-05 -7.55722e-07)
(0.0656004 -5.73732e-05 -7.55801e-07)
(0.0656043 -5.78085e-05 -7.55882e-07)
(0.0656083 -5.82505e-05 -7.55964e-07)
(0.0656124 -5.86993e-05 -7.56048e-07)
(0.0656165 -5.91551e-05 -7.56132e-07)
(0.0656207 -5.9618e-05 -7.56218e-07)
(0.0656249 -6.00882e-05 -7.56306e-07)
(0.0656292 -6.05658e-05 -7.56395e-07)
(0.0656336 -6.10512e-05 -7.56485e-07)
(0.0657019 -6.11088e-05 -5.60164e-10)
(0.0654986 -5.25694e-05 -7.54376e-07)
(0.0655015 -5.29347e-05 -7.5444e-07)
(0.0655044 -5.33051e-05 -7.54505e-07)
(0.0655074 -5.36807e-05 -7.54571e-07)
(0.0655104 -5.40617e-05 -7.54638e-07)
(0.0655135 -5.44481e-05 -7.54706e-07)
(0.0655166 -5.48401e-05 -7.54775e-07)
(0.0655198 -5.52378e-05 -7.54845e-07)
(0.065523 -5.56413e-05 -7.54916e-07)
(0.0655262 -5.60507e-05 -7.54988e-07)
(0.0655295 -5.64662e-05 -7.55061e-07)
(0.0655329 -5.68879e-05 -7.55135e-07)
(0.0655363 -5.73159e-05 -7.5521e-07)
(0.0655397 -5.77504e-05 -7.55287e-07)
(0.0655432 -5.81916e-05 -7.55364e-07)
(0.0655468 -5.86396e-05 -7.55443e-07)
(0.0655504 -5.90945e-05 -7.55523e-07)
(0.0655541 -5.95565e-05 -7.55604e-07)
(0.0655578 -6.00258e-05 -7.55686e-07)
(0.0655616 -6.05026e-05 -7.5577e-07)
(0.0655655 -6.0987e-05 -7.55855e-07)
(0.0656336 -6.10446e-05 -5.01943e-10)
(0.0654399 -5.25203e-05 -7.53835e-07)
(0.0654424 -5.2885e-05 -7.53895e-07)
(0.0654449 -5.32548e-05 -7.53956e-07)
(0.0654475 -5.36298e-05 -7.54018e-07)
(0.0654501 -5.40101e-05 -7.54081e-07)
(0.0654527 -5.43959e-05 -7.54145e-07)
(0.0654554 -5.47872e-05 -7.5421e-07)
(0.0654581 -5.51841e-05 -7.54276e-07)
(0.0654608 -5.55869e-05 -7.54342e-07)
(0.0654636 -5.59956e-05 -7.5441e-07)
(0.0654665 -5.64103e-05 -7.54479e-07)
(0.0654693 -5.68312e-05 -7.54549e-07)
(0.0654723 -5.72585e-05 -7.54619e-07)
(0.0654752 -5.76922e-05 -7.54691e-07)
(0.0654782 -5.81326e-05 -7.54764e-07)
(0.0654813 -5.85797e-05 -7.54838e-07)
(0.0654844 -5.90338e-05 -7.54913e-07)
(0.0654876 -5.94949e-05 -7.5499e-07)
(0.0654908 -5.99633e-05 -7.55067e-07)
(0.065494 -6.04392e-05 -7.55146e-07)
(0.0654973 -6.09226e-05 -7.55226e-07)
(0.0655654 -6.09802e-05 -4.43859e-10)
(0.0653812 -5.24712e-05 -7.53293e-07)
(0.0653833 -5.28353e-05 -7.5335e-07)
(0.0653854 -5.32044e-05 -7.53407e-07)
(0.0653875 -5.35788e-05 -7.53465e-07)
(0.0653897 -5.39584e-05 -7.53524e-07)
(0.0653919 -5.43435e-05 -7.53584e-07)
(0.0653942 -5.47341e-05 -7.53645e-07)
(0.0653964 -5.51304e-05 -7.53707e-07)
(0.0653987 -5.55324e-05 -7.53769e-07)
(0.0654011 -5.59404e-05 -7.53833e-07)
(0.0654034 -5.63544e-05 -7.53897e-07)
(0.0654058 -5.67745e-05 -7.53963e-07)
(0.0654083 -5.7201e-05 -7.54029e-07)
(0.0654108 -5.76339e-05 -7.54096e-07)
(0.0654133 -5.80735e-05 -7.54165e-07)
(0.0654159 -5.85198e-05 -7.54234e-07)
(0.0654185 -5.8973e-05 -7.54305e-07)
(0.0654211 -5.94332e-05 -7.54376e-07)
(0.0654238 -5.99008e-05 -7.54449e-07)
(0.0654265 -6.03757e-05 -7.54523e-07)
(0.0654293 -6.08582e-05 -7.54598e-07)
(0.0654973 -6.09158e-05 -3.85913e-10)
(0.0653226 -5.2422e-05 -7.52752e-07)
(0.0653242 -5.27855e-05 -7.52805e-07)
(0.0653259 -5.3154e-05 -7.52859e-07)
(0.0653277 -5.35277e-05 -7.52913e-07)
(0.0653294 -5.39067e-05 -7.52968e-07)
(0.0653312 -5.42911e-05 -7.53024e-07)
(0.065333 -5.4681e-05 -7.53081e-07)
(0.0653348 -5.50765e-05 -7.53138e-07)
(0.0653367 -5.54779e-05 -7.53196e-07)
(0.0653386 -5.58851e-05 -7.53256e-07)
(0.0653405 -5.62983e-05 -7.53316e-07)
(0.0653424 -5.67177e-05 -7.53377e-07)
(0.0653444 -5.71434e-05 -7.53439e-07)
(0.0653464 -5.75755e-05 -7.53502e-07)
(0.0653484 -5.80143e-05 -7.53565e-07)
(0.0653505 -5.84597e-05 -7.5363e-07)
(0.0653526 -5.89121e-05 -7.53696e-07)
(0.0653547 -5.93715e-05 -7.53763e-07)
(0.0653568 -5.98381e-05 -7.53831e-07)
(0.065359 -6.03121e-05 -7.539e-07)
(0.0653613 -6.07937e-05 -7.5397e-07)
(0.0654293 -6.08512e-05 -3.28106e-10)
(0.065264 -5.23727e-05 -7.52211e-07)
(0.0652653 -5.27356e-05 -7.5226e-07)
(0.0652665 -5.31034e-05 -7.5231e-07)
(0.0652678 -5.34765e-05 -7.52361e-07)
(0.0652692 -5.38548e-05 -7.52412e-07)
(0.0652705 -5.42385e-05 -7.52464e-07)
(0.0652719 -5.46278e-05 -7.52516e-07)
(0.0652733 -5.50226e-05 -7.5257e-07)
(0.0652747 -5.54232e-05 -7.52624e-07)
(0.0652761 -5.58297e-05 -7.52679e-07)
(0.0652776 -5.62422e-05 -7.52735e-07)
(0.065279 -5.66608e-05 -7.52791e-07)
(0.0652805 -5.70857e-05 -7.52849e-07)
(0.065282 -5.75171e-05 -7.52907e-07)
(0.0652836 -5.79549e-05 -7.52967e-07)
(0.0652851 -5.83996e-05 -7.53027e-07)
(0.0652867 -5.88511e-05 -7.53088e-07)
(0.0652883 -5.93096e-05 -7.5315e-07)
(0.06529 -5.97753e-05 -7.53213e-07)
(0.0652916 -6.02484e-05 -7.53277e-07)
(0.0652933 -6.0729e-05 -7.53342e-07)
(0.0653613 -6.07865e-05 -2.70436e-10)
(0.0652054 -5.23234e-05 -7.51671e-07)
(0.0652063 -5.26856e-05 -7.51716e-07)
(0.0652072 -5.30528e-05 -7.51762e-07)
(0.0652081 -5.34252e-05 -7.51809e-07)
(0.065209 -5.38029e-05 -7.51856e-07)
(0.0652099 -5.41859e-05 -7.51904e-07)
(0.0652108 -5.45745e-05 -7.51953e-07)
(0.0652118 -5.49686e-05 -7.52002e-07)
(0.0652127 -5.53685e-05 -7.52052e-07)
(0.0652137 -5.57742e-05 -7.52103e-07)
(0.0652147 -5.6186e-05 -7.52154e-07)
(0.0652157 -5.66038e-05 -7.52207e-07)
(0.0652167 -5.70279e-05 -7.5226e-07)
(0.0652178 -5.74585e-05 -7.52313e-07)
(0.0652188 -5.78955e-05 -7.52368e-07)
(0.0652199 -5.83393e-05 -7.52424e-07)
(0.065221 -5.87899e-05 -7.5248e-07)
(0.0652221 -5.92476e-05 -7.52537e-07)
(0.0652232 -5.97124e-05 -7.52596e-07)
(0.0652243 -6.01846e-05 -7.52655e-07)
(0.0652255 -6.06643e-05 -7.52715e-07)
(0.0652933 -6.07218e-05 -2.1292e-10)
(0.065147 -5.22746e-05 -7.51131e-07)
(0.0651474 -5.26361e-05 -7.51173e-07)
(0.0651479 -5.30028e-05 -7.51215e-07)
(0.0651484 -5.33745e-05 -7.51257e-07)
(0.0651488 -5.37515e-05 -7.51301e-07)
(0.0651493 -5.41339e-05 -7.51345e-07)
(0.0651498 -5.45217e-05 -7.51389e-07)
(0.0651503 -5.49152e-05 -7.51435e-07)
(0.0651509 -5.53144e-05 -7.5148e-07)
(0.0651514 -5.57194e-05 -7.51527e-07)
(0.0651519 -5.61304e-05 -7.51574e-07)
(0.0651524 -5.65475e-05 -7.51622e-07)
(0.065153 -5.69708e-05 -7.51671e-07)
(0.0651535 -5.74005e-05 -7.5172e-07)
(0.0651541 -5.78368e-05 -7.5177e-07)
(0.0651547 -5.82798e-05 -7.51821e-07)
(0.0651552 -5.87295e-05 -7.51873e-07)
(0.0651558 -5.91863e-05 -7.51926e-07)
(0.0651564 -5.96503e-05 -7.51979e-07)
(0.065157 -6.01215e-05 -7.52033e-07)
(0.0651577 -6.06003e-05 -7.52088e-07)
(0.0652255 -6.06577e-05 -1.39348e-10)
(0.0650862 -5.20875e-05 -7.50923e-07)
(0.0650863 -5.24475e-05 -7.50964e-07)
(0.0650863 -5.28125e-05 -7.51004e-07)
(0.0650863 -5.31827e-05 -7.51046e-07)
(0.0650864 -5.3558e-05 -7.51087e-07)
(0.0650864 -5.39387e-05 -7.5113e-07)
(0.0650865 -5.43249e-05 -7.51173e-07)
(0.0650865 -5.47166e-05 -7.51216e-07)
(0.0650866 -5.5114e-05 -7.51261e-07)
(0.0650866 -5.55172e-05 -7.51306e-07)
(0.0650867 -5.59264e-05 -7.51351e-07)
(0.0650867 -5.63416e-05 -7.51398e-07)
(0.0650868 -5.67631e-05 -7.51445e-07)
(0.0650868 -5.71909e-05 -7.51492e-07)
(0.0650869 -5.76252e-05 -7.51541e-07)
(0.0650869 -5.80662e-05 -7.5159e-07)
(0.065087 -5.85139e-05 -7.5164e-07)
(0.0650871 -5.89687e-05 -7.51691e-07)
(0.0650871 -5.94305e-05 -7.51742e-07)
(0.0650872 -5.98996e-05 -7.51795e-07)
(0.0650872 -6.03762e-05 -7.51848e-07)
(0.0651551 -6.0445e-05 -9.85338e-09)
)
;

boundaryField
{
    inlet
    {
        type            calculated;
        value           uniform (0.0741049 0 0);
    }
    outlet2
    {
        type            calculated;
        value           uniform (0.0741049 0 0);
    }
    outlet1
    {
        type            calculated;
        value           uniform (0.0741049 0 0);
    }
    wall
    {
        type            calculated;
        value           uniform (0.0741049 0 0);
    }
    symmetryBottom
    {
        type            symmetry;
    }
    symmetryZ0
    {
        type            symmetry;
    }
    symmetryZ05
    {
        type            symmetry;
    }
}


// ************************************************************************* //
