/*--------------------------------*- C++ -*----------------------------------*\
| =========                 |                                                 |
| \\      /  F ield         | OpenFOAM: The Open Source CFD Toolbox           |
|  \\    /   O peration     | Version:  2412                                  |
|   \\  /    A nd           | Website:  www.openfoam.com                      |
|    \\/     M anipulation  |                                                 |
\*---------------------------------------------------------------------------*/
FoamFile
{
    version     2.0;
    format      ascii;
    arch        "LSB;label=32;scalar=64";
    class       volVectorField;
    location    "9.96134e-07";
    object      rhoU;
}
// * * * * * * * * * * * * * * * * * * * * * * * * * * * * * * * * * * * * * //

dimensions      [0 0 0 0 0 0 0];

internalField   nonuniform List<vector> 
625
(
(0.0752872 -2.97899e-07 -6.83937e-07)
(0.063185 -4.56132e-07 -7.26596e-07)
(0.063185 -4.56899e-07 8.45891e-09)
(0.0752889 -5.69564e-05 -6.83907e-07)
(0.0631866 -5.067e-05 -7.26571e-07)
(0.0631866 -5.06709e-05 -1.72563e-10)
(0.0752872 -5.67857e-05 -6.83922e-07)
(0.063185 -5.05137e-05 -7.26588e-07)
(0.0631851 -5.05144e-05 -6.71426e-11)
(0.0752873 -5.67863e-05 -6.83922e-07)
(0.0631851 -5.05143e-05 -7.26588e-07)
(0.0631851 -5.0515e-05 -6.7487e-11)
(0.0752873 -5.67863e-05 -6.83922e-07)
(0.0631851 -5.05143e-05 -7.26588e-07)
(0.0631851 -5.0515e-05 -6.74861e-11)
(0.0752873 -5.67863e-05 -6.83922e-07)
(0.0631851 -5.05143e-05 -7.26588e-07)
(0.0631851 -5.0515e-05 -6.74861e-11)
(0.0752873 -5.67863e-05 -6.83922e-07)
(0.0631851 -5.05143e-05 -7.26588e-07)
(0.0631851 -5.0515e-05 -6.74861e-11)
(0.0752873 -5.67863e-05 -6.83922e-07)
(0.0631851 -5.05143e-05 -7.26588e-07)
(0.0631851 -5.0515e-05 -6.74861e-11)
(0.0752873 -5.67863e-05 -6.83922e-07)
(0.0631851 -5.05143e-05 -7.26588e-07)
(0.0631851 -5.0515e-05 -6.74861e-11)
(0.0752873 -5.67863e-05 -6.83922e-07)
(0.0631851 -5.05143e-05 -7.26588e-07)
(0.0631851 -5.0515e-05 -6.74861e-11)
(0.0752873 -5.67863e-05 -6.83922e-07)
(0.0631851 -5.05143e-05 -7.26588e-07)
(0.0631851 -5.0515e-05 -6.74861e-11)
(0.0752873 -5.67863e-05 -6.83922e-07)
(0.0631851 -5.05143e-05 -7.26588e-07)
(0.0631851 -5.0515e-05 -6.74861e-11)
(0.0752873 -5.67863e-05 -6.83922e-07)
(0.0631851 -5.05143e-05 -7.26588e-07)
(0.0631851 -5.0515e-05 -6.74861e-11)
(0.0752873 -5.67863e-05 -6.83922e-07)
(0.0631851 -5.05143e-05 -7.26588e-07)
(0.0631851 -5.0515e-05 -6.74861e-11)
(0.0752873 -5.67863e-05 -6.83922e-07)
(0.0631851 -5.05143e-05 -7.26588e-07)
(0.0631851 -5.0515e-05 -6.74861e-11)
(0.0752873 -5.67863e-05 -6.83922e-07)
(0.0631851 -5.05143e-05 -7.26588e-07)
(0.0631851 -5.0515e-05 -6.74861e-11)
(0.0752873 -5.67863e-05 -6.83922e-07)
(0.0631851 -5.05143e-05 -7.26588e-07)
(0.0631851 -5.0515e-05 -6.74861e-11)
(0.0752873 -5.67863e-05 -6.83922e-07)
(0.0631851 -5.05143e-05 -7.26588e-07)
(0.0631851 -5.0515e-05 -6.74861e-11)
(0.0752873 -5.67863e-05 -6.83922e-07)
(0.0631851 -5.05143e-05 -7.26588e-07)
(0.0631851 -5.0515e-05 -6.74861e-11)
(0.0752873 -5.67863e-05 -6.83922e-07)
(0.0631851 -5.05143e-05 -7.26588e-07)
(0.0631851 -5.0515e-05 -6.74861e-11)
(0.0752873 -5.67863e-05 -6.83922e-07)
(0.0631851 -5.05143e-05 -7.26588e-07)
(0.0631851 -5.0515e-05 -6.74861e-11)
(0.0752873 -5.67863e-05 -6.83922e-07)
(0.0631851 -5.05143e-05 -7.26588e-07)
(0.0631851 -5.0515e-05 -6.74893e-11)
(0.0752873 -5.67863e-05 -6.83922e-07)
(0.0631851 -5.05143e-05 -7.26588e-07)
(0.0631851 -5.0515e-05 -6.35729e-11)
(0.0752873 -5.67863e-05 -6.83922e-07)
(0.0631851 -5.0515e-05 -7.26588e-07)
(0.0631851 -5.05196e-05 -4.98923e-09)
(0.0752878 -5.68203e-05 -6.84232e-07)
(0.0631825 -5.0363e-05 -7.26905e-07)
(0.0631826 -5.03676e-05 -7.29851e-07)
(0.0649028 6.22157e-06 -8.16988e-07)
(0.0649018 6.31875e-06 -8.17532e-07)
(0.0649007 6.41819e-06 -8.18083e-07)
(0.0648996 6.51995e-06 -8.18643e-07)
(0.0648986 6.6241e-06 -8.19212e-07)
(0.0648975 6.73073e-06 -8.1979e-07)
(0.0648964 6.83991e-06 -8.20376e-07)
(0.0648953 6.95172e-06 -8.20972e-07)
(0.0648942 7.06625e-06 -8.21578e-07)
(0.064893 7.18358e-06 -8.22193e-07)
(0.0648919 7.30381e-06 -8.22818e-07)
(0.0648907 7.42703e-06 -8.23454e-07)
(0.0648895 7.55334e-06 -8.241e-07)
(0.0648883 7.68285e-06 -8.24756e-07)
(0.0648871 7.81566e-06 -8.25424e-07)
(0.0648859 7.95188e-06 -8.26103e-07)
(0.0648847 8.09164e-06 -8.26794e-07)
(0.0648835 8.23505e-06 -8.27496e-07)
(0.0648822 8.38225e-06 -8.28211e-07)
(0.0648809 8.53336e-06 -8.28938e-07)
(0.0648796 8.68853e-06 -8.29678e-07)
(0.0649464 8.68949e-06 -1.31844e-08)
(0.0664662 -4.99436e-05 -7.598e-07)
(0.066476 -5.02671e-05 -7.59902e-07)
(0.066486 -5.05946e-05 -7.60006e-07)
(0.0664961 -5.09264e-05 -7.60112e-07)
(0.0665063 -5.12625e-05 -7.60219e-07)
(0.0665167 -5.16029e-05 -7.60327e-07)
(0.0665273 -5.19478e-05 -7.60437e-07)
(0.066538 -5.22972e-05 -7.60549e-07)
(0.0665488 -5.26512e-05 -7.60662e-07)
(0.0665598 -5.30099e-05 -7.60777e-07)
(0.066571 -5.33733e-05 -7.60894e-07)
(0.0665824 -5.37417e-05 -7.61012e-07)
(0.0665939 -5.4115e-05 -7.61132e-07)
(0.0666056 -5.44934e-05 -7.61254e-07)
(0.0666175 -5.4877e-05 -7.61378e-07)
(0.0666296 -5.52658e-05 -7.61504e-07)
(0.0666419 -5.566e-05 -7.61632e-07)
(0.0666544 -5.60597e-05 -7.61762e-07)
(0.066667 -5.6465e-05 -7.61894e-07)
(0.0666799 -5.6876e-05 -7.62028e-07)
(0.066693 -5.72928e-05 -7.62164e-07)
(0.0667616 -5.73495e-05 -3.56167e-09)
(0.0663859 -5.32746e-05 -7.59244e-07)
(0.066395 -5.36496e-05 -7.59343e-07)
(0.0664042 -5.40299e-05 -7.59442e-07)
(0.0664136 -5.44156e-05 -7.59544e-07)
(0.0664231 -5.48069e-05 -7.59646e-07)
(0.0664327 -5.52038e-05 -7.5975e-07)
(0.0664425 -5.56065e-05 -7.59856e-07)
(0.0664524 -5.60152e-05 -7.59963e-07)
(0.0664625 -5.64299e-05 -7.60072e-07)
(0.0664727 -5.68508e-05 -7.60182e-07)
(0.066483 -5.7278e-05 -7.60294e-07)
(0.0664935 -5.77117e-05 -7.60407e-07)
(0.0665042 -5.81521e-05 -7.60523e-07)
(0.066515 -5.85992e-05 -7.6064e-07)
(0.066526 -5.90532e-05 -7.60758e-07)
(0.0665372 -5.95144e-05 -7.60879e-07)
(0.0665486 -5.99828e-05 -7.61002e-07)
(0.0665601 -6.04586e-05 -7.61126e-07)
(0.0665718 -6.09421e-05 -7.61253e-07)
(0.0665837 -6.14334e-05 -7.61381e-07)
(0.0665958 -6.19326e-05 -7.61512e-07)
(0.0666643 -6.19919e-05 -2.42531e-09)
(0.0663264 -5.31967e-05 -7.58723e-07)
(0.066335 -5.35703e-05 -7.58818e-07)
(0.0663438 -5.39491e-05 -7.58914e-07)
(0.0663528 -5.43334e-05 -7.59011e-07)
(0.0663618 -5.47231e-05 -7.5911e-07)
(0.066371 -5.51185e-05 -7.5921e-07)
(0.0663803 -5.55197e-05 -7.59312e-07)
(0.0663898 -5.59267e-05 -7.59415e-07)
(0.0663994 -5.63397e-05 -7.59519e-07)
(0.0664091 -5.67589e-05 -7.59626e-07)
(0.066419 -5.71844e-05 -7.59733e-07)
(0.066429 -5.76163e-05 -7.59843e-07)
(0.0664392 -5.80547e-05 -7.59954e-07)
(0.0664496 -5.84999e-05 -7.60066e-07)
(0.06646 -5.8952e-05 -7.60181e-07)
(0.0664707 -5.94111e-05 -7.60297e-07)
(0.0664815 -5.98774e-05 -7.60415e-07)
(0.0664925 -6.03511e-05 -7.60535e-07)
(0.0665037 -6.08323e-05 -7.60657e-07)
(0.066515 -6.13213e-05 -7.6078e-07)
(0.0665266 -6.18182e-05 -7.60906e-07)
(0.066595 -6.18772e-05 -2.31981e-09)
(0.0662668 -5.31572e-05 -7.58202e-07)
(0.0662751 -5.35302e-05 -7.58293e-07)
(0.0662835 -5.39085e-05 -7.58385e-07)
(0.066292 -5.42922e-05 -7.58479e-07)
(0.0663006 -5.46813e-05 -7.58574e-07)
(0.0663094 -5.50761e-05 -7.5867e-07)
(0.0663182 -5.54767e-05 -7.58768e-07)
(0.0663272 -5.58831e-05 -7.58867e-07)
(0.0663364 -5.62955e-05 -7.58967e-07)
(0.0663456 -5.6714e-05 -7.59069e-07)
(0.066355 -5.71388e-05 -7.59173e-07)
(0.0663646 -5.757e-05 -7.59278e-07)
(0.0663743 -5.80078e-05 -7.59385e-07)
(0.0663841 -5.84522e-05 -7.59493e-07)
(0.0663941 -5.89036e-05 -7.59603e-07)
(0.0664042 -5.93619e-05 -7.59715e-07)
(0.0664146 -5.98275e-05 -7.59828e-07)
(0.066425 -6.03004e-05 -7.59944e-07)
(0.0664356 -6.07808e-05 -7.60061e-07)
(0.0664464 -6.1269e-05 -7.60179e-07)
(0.0664574 -6.1765e-05 -7.603e-07)
(0.0665258 -6.18239e-05 -2.21227e-09)
(0.0662074 -5.31174e-05 -7.57681e-07)
(0.0662152 -5.34899e-05 -7.57768e-07)
(0.0662232 -5.38676e-05 -7.57857e-07)
(0.0662313 -5.42507e-05 -7.57946e-07)
(0.0662394 -5.46393e-05 -7.58038e-07)
(0.0662477 -5.50335e-05 -7.5813e-07)
(0.0662562 -5.54334e-05 -7.58224e-07)
(0.0662647 -5.58392e-05 -7.58319e-07)
(0.0662734 -5.62509e-05 -7.58415e-07)
(0.0662822 -5.66688e-05 -7.58513e-07)
(0.0662911 -5.70929e-05 -7.58613e-07)
(0.0663002 -5.75234e-05 -7.58714e-07)
(0.0663094 -5.79605e-05 -7.58816e-07)
(0.0663187 -5.84042e-05 -7.5892e-07)
(0.0663282 -5.88548e-05 -7.59026e-07)
(0.0663378 -5.93124e-05 -7.59133e-07)
(0.0663476 -5.97772e-05 -7.59242e-07)
(0.0663576 -6.02493e-05 -7.59352e-07)
(0.0663677 -6.0729e-05 -7.59465e-07)
(0.0663779 -6.12163e-05 -7.59579e-07)
(0.0663883 -6.17115e-05 -7.59695e-07)
(0.0664566 -6.17702e-05 -2.10462e-09)
(0.066148 -5.30777e-05 -7.5716e-07)
(0.0661554 -5.34496e-05 -7.57243e-07)
(0.0661629 -5.38268e-05 -7.57328e-07)
(0.0661706 -5.42093e-05 -7.57414e-07)
(0.0661783 -5.45973e-05 -7.57502e-07)
(0.0661862 -5.49908e-05 -7.5759e-07)
(0.0661942 -5.53901e-05 -7.5768e-07)
(0.0662023 -5.57953e-05 -7.57771e-07)
(0.0662105 -5.62064e-05 -7.57864e-07)
(0.0662188 -5.66236e-05 -7.57958e-07)
(0.0662273 -5.7047e-05 -7.58053e-07)
(0.0662358 -5.74769e-05 -7.5815e-07)
(0.0662446 -5.79132e-05 -7.58248e-07)
(0.0662534 -5.83563e-05 -7.58348e-07)
(0.0662624 -5.88061e-05 -7.58449e-07)
(0.0662715 -5.9263e-05 -7.58551e-07)
(0.0662808 -5.9727e-05 -7.58656e-07)
(0.0662902 -6.01983e-05 -7.58762e-07)
(0.0662997 -6.06771e-05 -7.58869e-07)
(0.0663094 -6.11636e-05 -7.58979e-07)
(0.0663193 -6.1658e-05 -7.5909e-07)
(0.0663875 -6.17165e-05 -1.9969e-09)
(0.0660886 -5.3038e-05 -7.56639e-07)
(0.0660956 -5.34093e-05 -7.56719e-07)
(0.0661027 -5.37859e-05 -7.568e-07)
(0.0661099 -5.41679e-05 -7.56883e-07)
(0.0661173 -5.45553e-05 -7.56966e-07)
(0.0661247 -5.49482e-05 -7.57051e-07)
(0.0661322 -5.53469e-05 -7.57137e-07)
(0.0661398 -5.57514e-05 -7.57224e-07)
(0.0661476 -5.61619e-05 -7.57313e-07)
(0.0661555 -5.65784e-05 -7.57403e-07)
(0.0661634 -5.70012e-05 -7.57494e-07)
(0.0661715 -5.74304e-05 -7.57586e-07)
(0.0661798 -5.7866e-05 -7.5768e-07)
(0.0661881 -5.83083e-05 -7.57775e-07)
(0.0661966 -5.87575e-05 -7.57872e-07)
(0.0662052 -5.92136e-05 -7.5797e-07)
(0.066214 -5.96768e-05 -7.5807e-07)
(0.0662228 -6.01473e-05 -7.58171e-07)
(0.0662319 -6.06253e-05 -7.58274e-07)
(0.066241 -6.1111e-05 -7.58379e-07)
(0.0662503 -6.16045e-05 -7.58485e-07)
(0.0663185 -6.16629e-05 -1.88911e-09)
(0.0660293 -5.29983e-05 -7.56119e-07)
(0.0660359 -5.33691e-05 -7.56195e-07)
(0.0660426 -5.37451e-05 -7.56273e-07)
(0.0660493 -5.41265e-05 -7.56352e-07)
(0.0660562 -5.45133e-05 -7.56431e-07)
(0.0660632 -5.49057e-05 -7.56512e-07)
(0.0660703 -5.53037e-05 -7.56594e-07)
(0.0660775 -5.57076e-05 -7.56677e-07)
(0.0660848 -5.61174e-05 -7.56762e-07)
(0.0660922 -5.65333e-05 -7.56848e-07)
(0.0660997 -5.69554e-05 -7.56935e-07)
(0.0661073 -5.73839e-05 -7.57023e-07)
(0.066115 -5.78188e-05 -7.57112e-07)
(0.0661229 -5.82604e-05 -7.57203e-07)
(0.0661309 -5.87088e-05 -7.57296e-07)
(0.066139 -5.91642e-05 -7.5739e-07)
(0.0661472 -5.96266e-05 -7.57485e-07)
(0.0661556 -6.00964e-05 -7.57582e-07)
(0.066164 -6.05736e-05 -7.5768e-07)
(0.0661727 -6.10584e-05 -7.5778e-07)
(0.0661814 -6.15511e-05 -7.57881e-07)
(0.0662495 -6.16093e-05 -1.78133e-09)
(0.06597 -5.29584e-05 -7.55599e-07)
(0.0659762 -5.33286e-05 -7.55672e-07)
(0.0659824 -5.37041e-05 -7.55745e-07)
(0.0659888 -5.40849e-05 -7.5582e-07)
(0.0659953 -5.44711e-05 -7.55896e-07)
(0.0660018 -5.48629e-05 -7.55973e-07)
(0.0660084 -5.52603e-05 -7.56051e-07)
(0.0660152 -5.56636e-05 -7.56131e-07)
(0.066022 -5.60727e-05 -7.56211e-07)
(0.0660289 -5.6488e-05 -7.56293e-07)
(0.066036 -5.69094e-05 -7.56375e-07)
(0.0660431 -5.73372e-05 -7.5646e-07)
(0.0660504 -5.77714e-05 -7.56545e-07)
(0.0660577 -5.82123e-05 -7.56632e-07)
(0.0660652 -5.866e-05 -7.56719e-07)
(0.0660728 -5.91146e-05 -7.56809e-07)
(0.0660805 -5.95762e-05 -7.569e-07)
(0.0660883 -6.00452e-05 -7.56992e-07)
(0.0660963 -6.05216e-05 -7.57085e-07)
(0.0661044 -6.10056e-05 -7.5718e-07)
(0.0661126 -6.14975e-05 -7.57277e-07)
(0.0661806 -6.15555e-05 -1.66359e-09)
(0.0659109 -5.291e-05 -7.55058e-07)
(0.0659167 -5.32797e-05 -7.55127e-07)
(0.0659225 -5.36545e-05 -7.55197e-07)
(0.0659285 -5.40346e-05 -7.55268e-07)
(0.0659345 -5.44202e-05 -7.5534e-07)
(0.0659406 -5.48113e-05 -7.55413e-07)
(0.0659468 -5.52081e-05 -7.55487e-07)
(0.0659531 -5.56106e-05 -7.55562e-07)
(0.0659594 -5.60191e-05 -7.55638e-07)
(0.0659659 -5.64336e-05 -7.55716e-07)
(0.0659725 -5.68543e-05 -7.55794e-07)
(0.0659791 -5.72813e-05 -7.55874e-07)
(0.0659859 -5.77148e-05 -7.55955e-07)
(0.0659928 -5.81549e-05 -7.56037e-07)
(0.0659998 -5.86017e-05 -7.56121e-07)
(0.0660068 -5.90555e-05 -7.56205e-07)
(0.066014 -5.95163e-05 -7.56291e-07)
(0.0660213 -5.99844e-05 -7.56379e-07)
(0.0660288 -6.04599e-05 -7.56467e-07)
(0.0660363 -6.09431e-05 -7.56558e-07)
(0.066044 -6.1434e-05 -7.56649e-07)
(0.066112 -6.14912e-05 -9.23324e-10)
(0.0658518 -5.28616e-05 -7.54517e-07)
(0.0658572 -5.32307e-05 -7.54582e-07)
(0.0658626 -5.36049e-05 -7.54648e-07)
(0.0658681 -5.39844e-05 -7.54715e-07)
(0.0658737 -5.43693e-05 -7.54783e-07)
(0.0658794 -5.47597e-05 -7.54852e-07)
(0.0658852 -5.51558e-05 -7.54922e-07)
(0.065891 -5.55577e-05 -7.54993e-07)
(0.0658969 -5.59654e-05 -7.55065e-07)
(0.0659029 -5.63792e-05 -7.55139e-07)
(0.065909 -5.67991e-05 -7.55213e-07)
(0.0659152 -5.72254e-05 -7.55288e-07)
(0.0659215 -5.76581e-05 -7.55365e-07)
(0.0659279 -5.80974e-05 -7.55442e-07)
(0.0659343 -5.85434e-05 -7.55521e-07)
(0.0659409 -5.89964e-05 -7.55601e-07)
(0.0659476 -5.94564e-05 -7.55682e-07)
(0.0659544 -5.99236e-05 -7.55765e-07)
(0.0659613 -6.03982e-05 -7.55849e-07)
(0.0659683 -6.08805e-05 -7.55934e-07)
(0.0659754 -6.13704e-05 -7.56021e-07)
(0.0660433 -6.14277e-05 -8.53306e-10)
(0.0657928 -5.28131e-05 -7.53976e-07)
(0.0657978 -5.31815e-05 -7.54037e-07)
(0.0658028 -5.35551e-05 -7.541e-07)
(0.0658079 -5.3934e-05 -7.54163e-07)
(0.065813 -5.43182e-05 -7.54227e-07)
(0.0658183 -5.4708e-05 -7.54292e-07)
(0.0658236 -5.51034e-05 -7.54358e-07)
(0.065829 -5.55046e-05 -7.54425e-07)
(0.0658344 -5.59116e-05 -7.54493e-07)
(0.06584 -5.63247e-05 -7.54562e-07)
(0.0658456 -5.67439e-05 -7.54632e-07)
(0.0658513 -5.71694e-05 -7.54703e-07)
(0.0658571 -5.76013e-05 -7.54775e-07)
(0.065863 -5.80398e-05 -7.54848e-07)
(0.065869 -5.8485e-05 -7.54922e-07)
(0.0658751 -5.89372e-05 -7.54998e-07)
(0.0658812 -5.93963e-05 -7.55074e-07)
(0.0658875 -5.98627e-05 -7.55152e-07)
(0.0658939 -6.03364e-05 -7.55231e-07)
(0.0659003 -6.08177e-05 -7.55311e-07)
(0.0659069 -6.13068e-05 -7.55393e-07)
(0.0659748 -6.1364e-05 -7.9441e-10)
(0.0657339 -5.27646e-05 -7.53435e-07)
(0.0657384 -5.31323e-05 -7.53493e-07)
(0.065743 -5.35053e-05 -7.53551e-07)
(0.0657477 -5.38835e-05 -7.53611e-07)
(0.0657524 -5.42671e-05 -7.53671e-07)
(0.0657572 -5.46562e-05 -7.53732e-07)
(0.0657621 -5.50509e-05 -7.53794e-07)
(0.065767 -5.54514e-05 -7.53857e-07)
(0.065772 -5.58577e-05 -7.5392e-07)
(0.0657771 -5.62701e-05 -7.53985e-07)
(0.0657823 -5.66885e-05 -7.54051e-07)
(0.0657875 -5.71133e-05 -7.54117e-07)
(0.0657928 -5.75444e-05 -7.54185e-07)
(0.0657982 -5.79821e-05 -7.54254e-07)
(0.0658037 -5.84266e-05 -7.54323e-07)
(0.0658093 -5.88778e-05 -7.54394e-07)
(0.0658149 -5.93361e-05 -7.54466e-07)
(0.0658207 -5.98016e-05 -7.54539e-07)
(0.0658265 -6.02745e-05 -7.54613e-07)
(0.0658324 -6.07549e-05 -7.54689e-07)
(0.0658385 -6.1243e-05 -7.54765e-07)
(0.0659063 -6.13002e-05 -7.35641e-10)
(0.065675 -5.27159e-05 -7.52895e-07)
(0.0656791 -5.3083e-05 -7.52949e-07)
(0.0656833 -5.34554e-05 -7.53003e-07)
(0.0656875 -5.38329e-05 -7.53059e-07)
(0.0656918 -5.42159e-05 -7.53115e-07)
(0.0656962 -5.46043e-05 -7.53172e-07)
(0.0657006 -5.49984e-05 -7.5323e-07)
(0.0657051 -5.53981e-05 -7.53289e-07)
(0.0657097 -5.58037e-05 -7.53348e-07)
(0.0657143 -5.62154e-05 -7.53409e-07)
(0.065719 -5.66331e-05 -7.5347e-07)
(0.0657237 -5.70571e-05 -7.53533e-07)
(0.0657286 -5.74874e-05 -7.53596e-07)
(0.0657335 -5.79243e-05 -7.5366e-07)
(0.0657385 -5.83679e-05 -7.53725e-07)
(0.0657435 -5.88184e-05 -7.53791e-07)
(0.0657487 -5.92759e-05 -7.53858e-07)
(0.0657539 -5.97405e-05 -7.53927e-07)
(0.0657592 -6.02125e-05 -7.53996e-07)
(0.0657646 -6.0692e-05 -7.54067e-07)
(0.0657701 -6.11792e-05 -7.54138e-07)
(0.0658378 -6.12363e-05 -6.77009e-10)
(0.0656161 -5.26671e-05 -7.52355e-07)
(0.0656198 -5.30337e-05 -7.52405e-07)
(0.0656236 -5.34053e-05 -7.52456e-07)
(0.0656274 -5.37823e-05 -7.52507e-07)
(0.0656313 -5.41646e-05 -7.5256e-07)
(0.0656352 -5.45523e-05 -7.52613e-07)
(0.0656392 -5.49457e-05 -7.52667e-07)
(0.0656432 -5.53448e-05 -7.52721e-07)
(0.0656473 -5.57497e-05 -7.52777e-07)
(0.0656515 -5.61605e-05 -7.52833e-07)
(0.0656557 -5.65775e-05 -7.5289e-07)
(0.06566 -5.70007e-05 -7.52948e-07)
(0.0656644 -5.74303e-05 -7.53007e-07)
(0.0656688 -5.78664e-05 -7.53067e-07)
(0.0656733 -5.83092e-05 -7.53127e-07)
(0.0656779 -5.87589e-05 -7.53189e-07)
(0.0656825 -5.92155e-05 -7.53251e-07)
(0.0656872 -5.96792e-05 -7.53315e-07)
(0.065692 -6.01503e-05 -7.53379e-07)
(0.0656968 -6.06289e-05 -7.53445e-07)
(0.0657018 -6.11152e-05 -7.53511e-07)
(0.0657694 -6.11723e-05 -6.18513e-10)
(0.0655573 -5.26183e-05 -7.51815e-07)
(0.0655606 -5.29842e-05 -7.51862e-07)
(0.0655639 -5.33552e-05 -7.51909e-07)
(0.0655673 -5.37315e-05 -7.51956e-07)
(0.0655708 -5.41132e-05 -7.52005e-07)
(0.0655743 -5.45002e-05 -7.52054e-07)
(0.0655778 -5.48929e-05 -7.52104e-07)
(0.0655814 -5.52913e-05 -7.52154e-07)
(0.0655851 -5.56955e-05 -7.52205e-07)
(0.0655888 -5.61056e-05 -7.52257e-07)
(0.0655926 -5.65219e-05 -7.5231e-07)
(0.0655964 -5.69443e-05 -7.52364e-07)
(0.0656003 -5.73731e-05 -7.52418e-07)
(0.0656042 -5.78084e-05 -7.52474e-07)
(0.0656082 -5.82504e-05 -7.5253e-07)
(0.0656122 -5.86992e-05 -7.52587e-07)
(0.0656164 -5.9155e-05 -7.52644e-07)
(0.0656206 -5.96179e-05 -7.52703e-07)
(0.0656248 -6.00881e-05 -7.52763e-07)
(0.0656291 -6.05657e-05 -7.52823e-07)
(0.0656335 -6.10511e-05 -7.52885e-07)
(0.0657011 -6.11082e-05 -5.60155e-10)
(0.0654985 -5.25693e-05 -7.51276e-07)
(0.0655014 -5.29346e-05 -7.51318e-07)
(0.0655043 -5.3305e-05 -7.51362e-07)
(0.0655073 -5.36807e-05 -7.51406e-07)
(0.0655103 -5.40617e-05 -7.5145e-07)
(0.0655134 -5.44481e-05 -7.51495e-07)
(0.0655165 -5.48401e-05 -7.51541e-07)
(0.0655197 -5.52377e-05 -7.51587e-07)
(0.0655229 -5.56412e-05 -7.51634e-07)
(0.0655261 -5.60506e-05 -7.51682e-07)
(0.0655294 -5.64661e-05 -7.51731e-07)
(0.0655328 -5.68878e-05 -7.5178e-07)
(0.0655362 -5.73158e-05 -7.5183e-07)
(0.0655396 -5.77504e-05 -7.51881e-07)
(0.0655431 -5.81915e-05 -7.51932e-07)
(0.0655467 -5.86395e-05 -7.51985e-07)
(0.0655503 -5.90944e-05 -7.52038e-07)
(0.065554 -5.95564e-05 -7.52092e-07)
(0.0655577 -6.00257e-05 -7.52147e-07)
(0.0655615 -6.05025e-05 -7.52202e-07)
(0.0655653 -6.09869e-05 -7.52259e-07)
(0.0656329 -6.1044e-05 -5.01934e-10)
(0.0654398 -5.25203e-05 -7.50737e-07)
(0.0654423 -5.2885e-05 -7.50776e-07)
(0.0654448 -5.32548e-05 -7.50815e-07)
(0.0654474 -5.36297e-05 -7.50855e-07)
(0.06545 -5.40101e-05 -7.50896e-07)
(0.0654526 -5.43958e-05 -7.50937e-07)
(0.0654553 -5.47871e-05 -7.50978e-07)
(0.065458 -5.51841e-05 -7.51021e-07)
(0.0654607 -5.55868e-05 -7.51064e-07)
(0.0654635 -5.59955e-05 -7.51107e-07)
(0.0654664 -5.64102e-05 -7.51152e-07)
(0.0654692 -5.68312e-05 -7.51197e-07)
(0.0654722 -5.72584e-05 -7.51242e-07)
(0.0654751 -5.76922e-05 -7.51289e-07)
(0.0654781 -5.81325e-05 -7.51336e-07)
(0.0654812 -5.85796e-05 -7.51383e-07)
(0.0654843 -5.90337e-05 -7.51432e-07)
(0.0654874 -5.94948e-05 -7.51481e-07)
(0.0654906 -5.99632e-05 -7.51531e-07)
(0.0654939 -6.04391e-05 -7.51582e-07)
(0.0654972 -6.09225e-05 -7.51634e-07)
(0.0655647 -6.09796e-05 -4.4385e-10)
(0.0653811 -5.24712e-05 -7.50198e-07)
(0.0653832 -5.28352e-05 -7.50233e-07)
(0.0653853 -5.32044e-05 -7.50269e-07)
(0.0653874 -5.35787e-05 -7.50305e-07)
(0.0653896 -5.39584e-05 -7.50341e-07)
(0.0653918 -5.43434e-05 -7.50379e-07)
(0.0653941 -5.47341e-05 -7.50416e-07)
(0.0653963 -5.51303e-05 -7.50455e-07)
(0.0653986 -5.55324e-05 -7.50494e-07)
(0.065401 -5.59403e-05 -7.50533e-07)
(0.0654033 -5.63543e-05 -7.50573e-07)
(0.0654057 -5.67745e-05 -7.50614e-07)
(0.0654082 -5.72009e-05 -7.50655e-07)
(0.0654107 -5.76339e-05 -7.50697e-07)
(0.0654132 -5.80734e-05 -7.50739e-07)
(0.0654157 -5.85197e-05 -7.50782e-07)
(0.0654183 -5.89729e-05 -7.50826e-07)
(0.065421 -5.94331e-05 -7.50871e-07)
(0.0654237 -5.99007e-05 -7.50916e-07)
(0.0654264 -6.03756e-05 -7.50962e-07)
(0.0654292 -6.08581e-05 -7.51008e-07)
(0.0654966 -6.09152e-05 -3.85905e-10)
(0.0653225 -5.2422e-05 -7.49659e-07)
(0.0653242 -5.27854e-05 -7.49691e-07)
(0.0653259 -5.31539e-05 -7.49723e-07)
(0.0653276 -5.35276e-05 -7.49755e-07)
(0.0653293 -5.39066e-05 -7.49788e-07)
(0.0653311 -5.4291e-05 -7.49821e-07)
(0.0653329 -5.46809e-05 -7.49855e-07)
(0.0653347 -5.50765e-05 -7.49889e-07)
(0.0653366 -5.54778e-05 -7.49924e-07)
(0.0653385 -5.5885e-05 -7.49959e-07)
(0.0653404 -5.62982e-05 -7.49995e-07)
(0.0653423 -5.67176e-05 -7.50031e-07)
(0.0653443 -5.71433e-05 -7.50068e-07)
(0.0653463 -5.75755e-05 -7.50105e-07)
(0.0653483 -5.80142e-05 -7.50143e-07)
(0.0653504 -5.84596e-05 -7.50182e-07)
(0.0653524 -5.8912e-05 -7.50221e-07)
(0.0653546 -5.93714e-05 -7.5026e-07)
(0.0653567 -5.9838e-05 -7.50301e-07)
(0.0653589 -6.0312e-05 -7.50342e-07)
(0.0653612 -6.07936e-05 -7.50384e-07)
(0.0654285 -6.08506e-05 -3.28097e-10)
(0.0652639 -5.23727e-05 -7.49121e-07)
(0.0652652 -5.27355e-05 -7.49149e-07)
(0.0652664 -5.31034e-05 -7.49177e-07)
(0.0652678 -5.34764e-05 -7.49205e-07)
(0.0652691 -5.38548e-05 -7.49234e-07)
(0.0652704 -5.42385e-05 -7.49263e-07)
(0.0652718 -5.46277e-05 -7.49293e-07)
(0.0652732 -5.50225e-05 -7.49323e-07)
(0.0652746 -5.54231e-05 -7.49354e-07)
(0.065276 -5.58296e-05 -7.49385e-07)
(0.0652775 -5.62421e-05 -7.49416e-07)
(0.0652789 -5.66607e-05 -7.49448e-07)
(0.0652804 -5.70856e-05 -7.49481e-07)
(0.0652819 -5.7517e-05 -7.49514e-07)
(0.0652835 -5.79549e-05 -7.49547e-07)
(0.065285 -5.83995e-05 -7.49581e-07)
(0.0652866 -5.8851e-05 -7.49616e-07)
(0.0652882 -5.93095e-05 -7.49651e-07)
(0.0652899 -5.97752e-05 -7.49686e-07)
(0.0652915 -6.02483e-05 -7.49723e-07)
(0.0652932 -6.07289e-05 -7.49759e-07)
(0.0653605 -6.07859e-05 -2.70429e-10)
(0.0652054 -5.23233e-05 -7.48583e-07)
(0.0652062 -5.26855e-05 -7.48607e-07)
(0.0652071 -5.30527e-05 -7.48631e-07)
(0.065208 -5.34251e-05 -7.48656e-07)
(0.0652089 -5.38028e-05 -7.48681e-07)
(0.0652098 -5.41858e-05 -7.48706e-07)
(0.0652107 -5.45744e-05 -7.48732e-07)
(0.0652117 -5.49685e-05 -7.48758e-07)
(0.0652126 -5.53684e-05 -7.48785e-07)
(0.0652136 -5.57741e-05 -7.48811e-07)
(0.0652146 -5.61859e-05 -7.48839e-07)
(0.0652156 -5.66037e-05 -7.48866e-07)
(0.0652166 -5.70279e-05 -7.48894e-07)
(0.0652176 -5.74584e-05 -7.48923e-07)
(0.0652187 -5.78955e-05 -7.48952e-07)
(0.0652198 -5.83392e-05 -7.48981e-07)
(0.0652208 -5.87899e-05 -7.49011e-07)
(0.0652219 -5.92475e-05 -7.49042e-07)
(0.0652231 -5.97123e-05 -7.49072e-07)
(0.0652242 -6.01845e-05 -7.49104e-07)
(0.0652253 -6.06642e-05 -7.49135e-07)
(0.0652926 -6.07212e-05 -2.12913e-10)
(0.0651469 -5.22745e-05 -7.48046e-07)
(0.0651473 -5.26361e-05 -7.48066e-07)
(0.0651478 -5.30027e-05 -7.48086e-07)
(0.0651483 -5.33744e-05 -7.48107e-07)
(0.0651488 -5.37515e-05 -7.48128e-07)
(0.0651492 -5.41338e-05 -7.4815e-07)
(0.0651497 -5.45217e-05 -7.48172e-07)
(0.0651502 -5.49151e-05 -7.48194e-07)
(0.0651508 -5.53143e-05 -7.48216e-07)
(0.0651513 -5.57193e-05 -7.48239e-07)
(0.0651518 -5.61303e-05 -7.48262e-07)
(0.0651523 -5.65474e-05 -7.48285e-07)
(0.0651529 -5.69707e-05 -7.48309e-07)
(0.0651534 -5.74005e-05 -7.48333e-07)
(0.065154 -5.78367e-05 -7.48357e-07)
(0.0651546 -5.82797e-05 -7.48382e-07)
(0.0651551 -5.87294e-05 -7.48407e-07)
(0.0651557 -5.91862e-05 -7.48433e-07)
(0.0651563 -5.96502e-05 -7.48459e-07)
(0.0651569 -6.01214e-05 -7.48485e-07)
(0.0651575 -6.06002e-05 -7.48512e-07)
(0.0652247 -6.06571e-05 -1.3934e-10)
(0.0650861 -5.20874e-05 -7.4784e-07)
(0.0650862 -5.24474e-05 -7.47859e-07)
(0.0650862 -5.28124e-05 -7.47878e-07)
(0.0650863 -5.31826e-05 -7.47897e-07)
(0.0650863 -5.35579e-05 -7.47917e-07)
(0.0650863 -5.39386e-05 -7.47937e-07)
(0.0650864 -5.43248e-05 -7.47957e-07)
(0.0650864 -5.47165e-05 -7.47978e-07)
(0.0650865 -5.51139e-05 -7.47998e-07)
(0.0650865 -5.55171e-05 -7.4802e-07)
(0.0650866 -5.59263e-05 -7.48041e-07)
(0.0650866 -5.63416e-05 -7.48063e-07)
(0.0650867 -5.6763e-05 -7.48085e-07)
(0.0650867 -5.71908e-05 -7.48107e-07)
(0.0650868 -5.76251e-05 -7.4813e-07)
(0.0650868 -5.80661e-05 -7.48153e-07)
(0.0650869 -5.85138e-05 -7.48177e-07)
(0.0650869 -5.89686e-05 -7.482e-07)
(0.065087 -5.94304e-05 -7.48225e-07)
(0.0650871 -5.98995e-05 -7.48249e-07)
(0.0650871 -6.03761e-05 -7.48274e-07)
(0.0651544 -6.04444e-05 -9.85334e-09)
)
;

boundaryField
{
    inlet
    {
        type            calculated;
        value           uniform (0 0 0);
    }
    outlet2
    {
        type            calculated;
        value           uniform (0 0 0);
    }
    outlet1
    {
        type            calculated;
        value           uniform (0 0 0);
    }
    wall
    {
        type            calculated;
        value           uniform (0 0 0);
    }
    symmetryBottom
    {
        type            symmetry;
    }
    symmetryZ0
    {
        type            symmetry;
    }
    symmetryZ05
    {
        type            symmetry;
    }
}


// ************************************************************************* //
