/*--------------------------------*- C++ -*----------------------------------*\
| =========                 |                                                 |
| \\      /  F ield         | OpenFOAM: The Open Source CFD Toolbox           |
|  \\    /   O peration     | Version:  2412                                  |
|   \\  /    A nd           | Website:  www.openfoam.com                      |
|    \\/     M anipulation  |                                                 |
\*---------------------------------------------------------------------------*/
FoamFile
{
    version     2.0;
    format      ascii;
    arch        "LSB;label=32;scalar=64";
    class       volVectorField;
    location    "9.96134e-07";
    object      rhoU_dof3;
}
// * * * * * * * * * * * * * * * * * * * * * * * * * * * * * * * * * * * * * //

dimensions      [0 0 0 0 0 0 0];

internalField   nonuniform List<vector> 
625
(
(0.000568878 7.38581e-09 -0.000630385)
(0.0005069 5.79979e-09 -0.000561494)
(0.000438259 4.15616e-09 1.61259e-11)
(0.000568889 -3.95498e-07 -0.000630414)
(0.00050691 -3.61578e-07 -0.00056152)
(0.000438269 -3.17862e-07 -2.28551e-12)
(0.000568889 -3.95518e-07 -0.000630397)
(0.00050691 -3.61595e-07 -0.000561505)
(0.000438268 -3.17849e-07 -2.76138e-12)
(0.000568889 -3.95519e-07 -0.000630397)
(0.00050691 -3.61596e-07 -0.000561505)
(0.000438268 -3.1785e-07 -2.7608e-12)
(0.000568889 -3.95519e-07 -0.000630397)
(0.00050691 -3.61596e-07 -0.000561505)
(0.000438268 -3.1785e-07 -2.76081e-12)
(0.000568889 -3.95519e-07 -0.000630397)
(0.00050691 -3.61596e-07 -0.000561505)
(0.000438268 -3.1785e-07 -2.76081e-12)
(0.000568889 -3.95519e-07 -0.000630397)
(0.00050691 -3.61596e-07 -0.000561505)
(0.000438268 -3.1785e-07 -2.76081e-12)
(0.000568889 -3.95519e-07 -0.000630397)
(0.00050691 -3.61596e-07 -0.000561505)
(0.000438268 -3.1785e-07 -2.76081e-12)
(0.000568889 -3.95519e-07 -0.000630397)
(0.00050691 -3.61596e-07 -0.000561505)
(0.000438268 -3.1785e-07 -2.76081e-12)
(0.000568889 -3.95519e-07 -0.000630397)
(0.00050691 -3.61596e-07 -0.000561505)
(0.000438268 -3.1785e-07 -2.76081e-12)
(0.000568889 -3.95519e-07 -0.000630397)
(0.00050691 -3.61596e-07 -0.000561505)
(0.000438268 -3.1785e-07 -2.76081e-12)
(0.000568889 -3.95519e-07 -0.000630397)
(0.00050691 -3.61596e-07 -0.000561505)
(0.000438268 -3.1785e-07 -2.76081e-12)
(0.000568889 -3.95519e-07 -0.000630397)
(0.00050691 -3.61596e-07 -0.000561505)
(0.000438268 -3.1785e-07 -2.76081e-12)
(0.000568889 -3.95519e-07 -0.000630397)
(0.00050691 -3.61596e-07 -0.000561505)
(0.000438268 -3.1785e-07 -2.76081e-12)
(0.000568889 -3.95519e-07 -0.000630397)
(0.00050691 -3.61596e-07 -0.000561505)
(0.000438268 -3.1785e-07 -2.76081e-12)
(0.000568889 -3.95519e-07 -0.000630397)
(0.00050691 -3.61596e-07 -0.000561505)
(0.000438268 -3.1785e-07 -2.76081e-12)
(0.000568889 -3.95519e-07 -0.000630397)
(0.00050691 -3.61596e-07 -0.000561505)
(0.000438268 -3.1785e-07 -2.76081e-12)
(0.000568889 -3.95519e-07 -0.000630397)
(0.00050691 -3.61596e-07 -0.000561505)
(0.000438268 -3.1785e-07 -2.76081e-12)
(0.000568889 -3.95519e-07 -0.000630397)
(0.00050691 -3.61596e-07 -0.000561505)
(0.000438268 -3.1785e-07 -2.76081e-12)
(0.000568889 -3.95519e-07 -0.000630397)
(0.00050691 -3.61596e-07 -0.000561505)
(0.000438268 -3.1785e-07 -2.76081e-12)
(0.000568889 -3.95519e-07 -0.000630397)
(0.00050691 -3.61596e-07 -0.000561505)
(0.000438268 -3.1785e-07 -2.76081e-12)
(0.000568889 -3.95519e-07 -0.000630397)
(0.00050691 -3.61596e-07 -0.000561505)
(0.000438268 -3.1785e-07 -2.76143e-12)
(0.000568889 -3.95519e-07 -0.000630397)
(0.00050691 -3.61596e-07 -0.000561505)
(0.000438268 -3.17808e-07 -4.79177e-12)
(0.000568889 -3.95538e-07 -0.000630398)
(0.00050691 -3.61614e-07 -0.000561505)
(0.000437712 -2.84367e-07 -3.24854e-09)
(0.00056903 -4.03986e-07 -0.000630543)
(0.000507023 -3.684e-07 -0.00056162)
(0.0005062 -3.16897e-07 -0.000561621)
(0.000520455 3.42062e-08 -0.000624863)
(0.00052045 3.46014e-08 -0.000625245)
(0.000520446 3.50046e-08 -0.000625634)
(0.000520441 3.5416e-08 -0.00062603)
(0.000520437 3.5836e-08 -0.000626432)
(0.000520432 3.62647e-08 -0.00062684)
(0.000520427 3.67024e-08 -0.000627255)
(0.000520422 3.71494e-08 -0.000627677)
(0.000520417 3.76059e-08 -0.000628107)
(0.000520412 3.80722e-08 -0.000628543)
(0.000520407 3.85487e-08 -0.000628987)
(0.000520402 3.90356e-08 -0.000629439)
(0.000520397 3.95333e-08 -0.000629899)
(0.000520392 4.0042e-08 -0.000630366)
(0.000520386 4.05623e-08 -0.000630842)
(0.000520381 4.10943e-08 -0.000631327)
(0.000520375 4.16385e-08 -0.00063182)
(0.00052037 4.21952e-08 -0.000632322)
(0.000520364 4.27649e-08 -0.000632834)
(0.000520358 4.33481e-08 -0.000633355)
(0.000520352 4.39451e-08 -0.000633886)
(0.00054884 4.52124e-08 -2.45038e-11)
(0.00053252 -3.72424e-07 -0.000589514)
(0.0005326 -3.75041e-07 -0.0005896)
(0.000532682 -3.77696e-07 -0.000589687)
(0.000532764 -3.80388e-07 -0.000589776)
(0.000532847 -3.83119e-07 -0.000589865)
(0.000532932 -3.85889e-07 -0.000589956)
(0.000533018 -3.887e-07 -0.000590049)
(0.000533105 -3.91552e-07 -0.000590142)
(0.000533193 -3.94446e-07 -0.000590237)
(0.000533283 -3.97383e-07 -0.000590334)
(0.000533374 -4.00364e-07 -0.000590431)
(0.000533466 -4.0339e-07 -0.000590531)
(0.00053356 -4.06462e-07 -0.000590631)
(0.000533656 -4.09582e-07 -0.000590734)
(0.000533752 -4.12749e-07 -0.000590838)
(0.00053385 -4.15966e-07 -0.000590943)
(0.00053395 -4.19234e-07 -0.00059105)
(0.000534051 -4.22553e-07 -0.000591159)
(0.000534154 -4.25925e-07 -0.000591269)
(0.000534259 -4.29351e-07 -0.000591381)
(0.000534365 -4.32833e-07 -0.000591495)
(0.000563727 -4.63153e-07 -1.3966e-11)
(0.000532098 -3.72769e-07 -0.000589138)
(0.000532175 -3.75393e-07 -0.000589222)
(0.000532253 -3.78054e-07 -0.000589307)
(0.000532332 -3.80753e-07 -0.000589394)
(0.000532412 -3.83491e-07 -0.000589481)
(0.000532494 -3.86269e-07 -0.00058957)
(0.000532576 -3.89087e-07 -0.000589661)
(0.00053266 -3.91947e-07 -0.000589752)
(0.000532745 -3.94849e-07 -0.000589845)
(0.000532832 -3.97794e-07 -0.00058994)
(0.000532919 -4.00783e-07 -0.000590035)
(0.000533008 -4.03818e-07 -0.000590133)
(0.000533099 -4.06899e-07 -0.000590231)
(0.00053319 -4.10028e-07 -0.000590331)
(0.000533283 -4.13205e-07 -0.000590433)
(0.000533378 -4.16431e-07 -0.000590536)
(0.000533474 -4.19709e-07 -0.000590641)
(0.000533572 -4.23038e-07 -0.000590748)
(0.000533671 -4.26421e-07 -0.000590856)
(0.000533771 -4.29858e-07 -0.000590966)
(0.000533874 -4.33351e-07 -0.000591078)
(0.000563195 -4.64388e-07 -1.33241e-11)
(0.000531676 -3.7247e-07 -0.00058867)
(0.00053175 -3.75089e-07 -0.000588751)
(0.000531825 -3.77746e-07 -0.000588833)
(0.000531901 -3.8044e-07 -0.000588916)
(0.000531978 -3.83173e-07 -0.000589)
(0.000532057 -3.85946e-07 -0.000589086)
(0.000532136 -3.88759e-07 -0.000589172)
(0.000532217 -3.91613e-07 -0.000589261)
(0.000532299 -3.94509e-07 -0.00058935)
(0.000532382 -3.97449e-07 -0.00058944)
(0.000532466 -4.00433e-07 -0.000589532)
(0.000532551 -4.03462e-07 -0.000589626)
(0.000532638 -4.06537e-07 -0.000589721)
(0.000532726 -4.09659e-07 -0.000589817)
(0.000532816 -4.1283e-07 -0.000589914)
(0.000532907 -4.1605e-07 -0.000590014)
(0.000532999 -4.19321e-07 -0.000590114)
(0.000533093 -4.22643e-07 -0.000590217)
(0.000533188 -4.26019e-07 -0.000590321)
(0.000533285 -4.29449e-07 -0.000590426)
(0.000533383 -4.32934e-07 -0.000590534)
(0.000562671 -4.63933e-07 -1.29296e-11)
(0.000531254 -3.72227e-07 -0.000588204)
(0.000531325 -3.74843e-07 -0.000588282)
(0.000531397 -3.77496e-07 -0.000588361)
(0.00053147 -3.80187e-07 -0.00058844)
(0.000531545 -3.82916e-07 -0.000588521)
(0.00053162 -3.85685e-07 -0.000588603)
(0.000531696 -3.88494e-07 -0.000588686)
(0.000531774 -3.91345e-07 -0.000588771)
(0.000531852 -3.94237e-07 -0.000588857)
(0.000531932 -3.97173e-07 -0.000588944)
(0.000532013 -4.00152e-07 -0.000589032)
(0.000532095 -4.03177e-07 -0.000589121)
(0.000532178 -4.06248e-07 -0.000589212)
(0.000532263 -4.09366e-07 -0.000589305)
(0.000532349 -4.12532e-07 -0.000589398)
(0.000532436 -4.15747e-07 -0.000589493)
(0.000532524 -4.19013e-07 -0.00058959)
(0.000532614 -4.22331e-07 -0.000589688)
(0.000532706 -4.25702e-07 -0.000589788)
(0.000532799 -4.29127e-07 -0.000589889)
(0.000532893 -4.32607e-07 -0.000589992)
(0.000562146 -4.63577e-07 -1.24931e-11)
(0.000530833 -3.71984e-07 -0.000587739)
(0.000530901 -3.74597e-07 -0.000587813)
(0.00053097 -3.77246e-07 -0.000587889)
(0.00053104 -3.79933e-07 -0.000587965)
(0.000531111 -3.82659e-07 -0.000588043)
(0.000531183 -3.85424e-07 -0.000588121)
(0.000531256 -3.8823e-07 -0.000588201)
(0.000531331 -3.91076e-07 -0.000588282)
(0.000531406 -3.93965e-07 -0.000588364)
(0.000531482 -3.96896e-07 -0.000588447)
(0.00053156 -3.99872e-07 -0.000588532)
(0.000531638 -4.02892e-07 -0.000588617)
(0.000531718 -4.05959e-07 -0.000588704)
(0.000531799 -4.09072e-07 -0.000588793)
(0.000531882 -4.12234e-07 -0.000588883)
(0.000531965 -4.15445e-07 -0.000588974)
(0.00053205 -4.18706e-07 -0.000589066)
(0.000532137 -4.22019e-07 -0.00058916)
(0.000532224 -4.25385e-07 -0.000589256)
(0.000532313 -4.28805e-07 -0.000589353)
(0.000532404 -4.3228e-07 -0.000589452)
(0.000561622 -4.63221e-07 -1.20571e-11)
(0.000530412 -3.71741e-07 -0.000587274)
(0.000530477 -3.7435e-07 -0.000587345)
(0.000530543 -3.76996e-07 -0.000587417)
(0.00053061 -3.7968e-07 -0.00058749)
(0.000530678 -3.82402e-07 -0.000587564)
(0.000530747 -3.85164e-07 -0.000587639)
(0.000530817 -3.87965e-07 -0.000587715)
(0.000530888 -3.90808e-07 -0.000587793)
(0.00053096 -3.93693e-07 -0.000587871)
(0.000531033 -3.9662e-07 -0.000587951)
(0.000531107 -3.99592e-07 -0.000588032)
(0.000531182 -4.02608e-07 -0.000588114)
(0.000531259 -4.0567e-07 -0.000588197)
(0.000531336 -4.08779e-07 -0.000588281)
(0.000531415 -4.11936e-07 -0.000588367)
(0.000531495 -4.15143e-07 -0.000588454)
(0.000531576 -4.18399e-07 -0.000588543)
(0.000531659 -4.21707e-07 -0.000588633)
(0.000531743 -4.25068e-07 -0.000588724)
(0.000531828 -4.28483e-07 -0.000588817)
(0.000531914 -4.31953e-07 -0.000588911)
(0.000561099 -4.62865e-07 -1.16211e-11)
(0.000529991 -3.71498e-07 -0.000586809)
(0.000530053 -3.74104e-07 -0.000586877)
(0.000530116 -3.76747e-07 -0.000586946)
(0.00053018 -3.79427e-07 -0.000587015)
(0.000530245 -3.82145e-07 -0.000587086)
(0.000530311 -3.84903e-07 -0.000587158)
(0.000530378 -3.87701e-07 -0.00058723)
(0.000530446 -3.9054e-07 -0.000587304)
(0.000530514 -3.93421e-07 -0.000587379)
(0.000530584 -3.96344e-07 -0.000587455)
(0.000530655 -3.99312e-07 -0.000587532)
(0.000530727 -4.02324e-07 -0.00058761)
(0.0005308 -4.05381e-07 -0.00058769)
(0.000530874 -4.08486e-07 -0.00058777)
(0.000530949 -4.11639e-07 -0.000587852)
(0.000531025 -4.1484e-07 -0.000587935)
(0.000531103 -4.18092e-07 -0.00058802)
(0.000531182 -4.21395e-07 -0.000588106)
(0.000531262 -4.24751e-07 -0.000588193)
(0.000531343 -4.28161e-07 -0.000588281)
(0.000531425 -4.31626e-07 -0.000588371)
(0.000560576 -4.62509e-07 -1.11851e-11)
(0.000529571 -3.71256e-07 -0.000586345)
(0.00052963 -3.73858e-07 -0.000586409)
(0.00052969 -3.76497e-07 -0.000586475)
(0.000529751 -3.79174e-07 -0.000586541)
(0.000529813 -3.81889e-07 -0.000586608)
(0.000529876 -3.84643e-07 -0.000586677)
(0.000529939 -3.87437e-07 -0.000586746)
(0.000530004 -3.90272e-07 -0.000586816)
(0.000530069 -3.93149e-07 -0.000586887)
(0.000530136 -3.96068e-07 -0.00058696)
(0.000530203 -3.99032e-07 -0.000587033)
(0.000530271 -4.02039e-07 -0.000587107)
(0.000530341 -4.05093e-07 -0.000587183)
(0.000530411 -4.08193e-07 -0.00058726)
(0.000530483 -4.11341e-07 -0.000587338)
(0.000530556 -4.14538e-07 -0.000587417)
(0.00053063 -4.17786e-07 -0.000587497)
(0.000530705 -4.21084e-07 -0.000587579)
(0.000530781 -4.24435e-07 -0.000587662)
(0.000530858 -4.27839e-07 -0.000587746)
(0.000530937 -4.31299e-07 -0.000587832)
(0.000560053 -4.62154e-07 -1.07494e-11)
(0.00052915 -3.71028e-07 -0.00058588)
(0.000529207 -3.73627e-07 -0.000585942)
(0.000529264 -3.76263e-07 -0.000586004)
(0.000529322 -3.78936e-07 -0.000586067)
(0.00052938 -3.81647e-07 -0.000586131)
(0.00052944 -3.84398e-07 -0.000586195)
(0.0005295 -3.87188e-07 -0.000586261)
(0.000529562 -3.90019e-07 -0.000586328)
(0.000529624 -3.92892e-07 -0.000586395)
(0.000529687 -3.95808e-07 -0.000586464)
(0.000529751 -3.98767e-07 -0.000586534)
(0.000529816 -4.0177e-07 -0.000586605)
(0.000529882 -4.0482e-07 -0.000586676)
(0.000529949 -4.07916e-07 -0.000586749)
(0.000530017 -4.11059e-07 -0.000586823)
(0.000530086 -4.14252e-07 -0.000586898)
(0.000530157 -4.17494e-07 -0.000586975)
(0.000530228 -4.20788e-07 -0.000587052)
(0.0005303 -4.24134e-07 -0.000587131)
(0.000530374 -4.27533e-07 -0.000587211)
(0.000530449 -4.30988e-07 -0.000587292)
(0.00055953 -4.61814e-07 -1.03186e-11)
(0.000528723 -3.71251e-07 -0.000585408)
(0.000528776 -3.73849e-07 -0.000585466)
(0.00052883 -3.76485e-07 -0.000585525)
(0.000528885 -3.79158e-07 -0.000585585)
(0.00052894 -3.81869e-07 -0.000585645)
(0.000528997 -3.84619e-07 -0.000585706)
(0.000529054 -3.87409e-07 -0.000585769)
(0.000529112 -3.90239e-07 -0.000585832)
(0.000529171 -3.93112e-07 -0.000585896)
(0.000529231 -3.96027e-07 -0.000585961)
(0.000529291 -3.98985e-07 -0.000586027)
(0.000529353 -4.01988e-07 -0.000586093)
(0.000529416 -4.05037e-07 -0.000586161)
(0.000529479 -4.08132e-07 -0.00058623)
(0.000529543 -4.11275e-07 -0.0005863)
(0.000529609 -4.14467e-07 -0.000586371)
(0.000529675 -4.17708e-07 -0.000586444)
(0.000529743 -4.21001e-07 -0.000586517)
(0.000529811 -4.24346e-07 -0.000586591)
(0.000529881 -4.27745e-07 -0.000586667)
(0.000529952 -4.31198e-07 -0.000586744)
(0.000559 -4.61963e-07 -8.46578e-12)
(0.000528295 -3.71473e-07 -0.000584937)
(0.000528345 -3.74071e-07 -0.000584991)
(0.000528396 -3.76706e-07 -0.000585047)
(0.000528448 -3.79379e-07 -0.000585103)
(0.000528501 -3.8209e-07 -0.00058516)
(0.000528554 -3.84839e-07 -0.000585218)
(0.000528608 -3.87629e-07 -0.000585276)
(0.000528663 -3.90459e-07 -0.000585336)
(0.000528718 -3.93331e-07 -0.000585396)
(0.000528775 -3.96246e-07 -0.000585458)
(0.000528832 -3.99204e-07 -0.00058552)
(0.00052889 -4.02207e-07 -0.000585583)
(0.000528949 -4.05255e-07 -0.000585647)
(0.000529009 -4.08349e-07 -0.000585712)
(0.00052907 -4.11492e-07 -0.000585778)
(0.000529132 -4.14683e-07 -0.000585845)
(0.000529194 -4.17924e-07 -0.000585913)
(0.000529258 -4.21215e-07 -0.000585982)
(0.000529323 -4.2456e-07 -0.000586052)
(0.000529389 -4.27957e-07 -0.000586124)
(0.000529455 -4.3141e-07 -0.000586196)
(0.00055847 -4.62114e-07 -8.06614e-12)
(0.000527868 -3.71694e-07 -0.000584465)
(0.000527915 -3.74292e-07 -0.000584517)
(0.000527963 -3.76927e-07 -0.000584569)
(0.000528012 -3.796e-07 -0.000584622)
(0.000528061 -3.8231e-07 -0.000584675)
(0.000528111 -3.8506e-07 -0.000584729)
(0.000528162 -3.87849e-07 -0.000584785)
(0.000528214 -3.90679e-07 -0.00058484)
(0.000528266 -3.9355e-07 -0.000584897)
(0.000528319 -3.96465e-07 -0.000584955)
(0.000528373 -3.99422e-07 -0.000585013)
(0.000528428 -4.02424e-07 -0.000585072)
(0.000528483 -4.05472e-07 -0.000585133)
(0.00052854 -4.08566e-07 -0.000585194)
(0.000528597 -4.11707e-07 -0.000585256)
(0.000528655 -4.14898e-07 -0.000585319)
(0.000528714 -4.18138e-07 -0.000585383)
(0.000528774 -4.21429e-07 -0.000585448)
(0.000528835 -4.24772e-07 -0.000585514)
(0.000528896 -4.28169e-07 -0.000585581)
(0.000528959 -4.31621e-07 -0.000585649)
(0.00055794 -4.62264e-07 -7.85014e-12)
(0.000527441 -3.71915e-07 -0.000583994)
(0.000527485 -3.74513e-07 -0.000584042)
(0.00052753 -3.77148e-07 -0.000584091)
(0.000527576 -3.7982e-07 -0.000584141)
(0.000527622 -3.8253e-07 -0.000584191)
(0.000527669 -3.85279e-07 -0.000584242)
(0.000527717 -3.88068e-07 -0.000584293)
(0.000527765 -3.90898e-07 -0.000584345)
(0.000527814 -3.93769e-07 -0.000584399)
(0.000527864 -3.96682e-07 -0.000584452)
(0.000527914 -3.9964e-07 -0.000584507)
(0.000527966 -4.02641e-07 -0.000584563)
(0.000528018 -4.05688e-07 -0.000584619)
(0.00052807 -4.08781e-07 -0.000584676)
(0.000528124 -4.11922e-07 -0.000584734)
(0.000528178 -4.15112e-07 -0.000584793)
(0.000528234 -4.18351e-07 -0.000584853)
(0.00052829 -4.21642e-07 -0.000584914)
(0.000528347 -4.24984e-07 -0.000584975)
(0.000528405 -4.2838e-07 -0.000585038)
(0.000528464 -4.31831e-07 -0.000585102)
(0.000557411 -4.62414e-07 -7.63483e-12)
(0.000527014 -3.72135e-07 -0.000583524)
(0.000527056 -3.74733e-07 -0.000583569)
(0.000527098 -3.77367e-07 -0.000583614)
(0.00052714 -3.80039e-07 -0.00058366)
(0.000527184 -3.82749e-07 -0.000583707)
(0.000527227 -3.85498e-07 -0.000583754)
(0.000527272 -3.88286e-07 -0.000583802)
(0.000527317 -3.91116e-07 -0.000583851)
(0.000527362 -3.93986e-07 -0.0005839)
(0.000527409 -3.969e-07 -0.00058395)
(0.000527456 -3.99856e-07 -0.000584001)
(0.000527504 -4.02857e-07 -0.000584053)
(0.000527552 -4.05904e-07 -0.000584105)
(0.000527601 -4.08996e-07 -0.000584159)
(0.000527651 -4.12137e-07 -0.000584213)
(0.000527702 -4.15325e-07 -0.000584268)
(0.000527754 -4.18564e-07 -0.000584323)
(0.000527806 -4.21854e-07 -0.00058438)
(0.000527859 -4.25195e-07 -0.000584438)
(0.000527913 -4.2859e-07 -0.000584496)
(0.000527968 -4.3204e-07 -0.000584555)
(0.000556882 -4.62562e-07 -7.42002e-12)
(0.000526588 -3.72354e-07 -0.000583053)
(0.000526627 -3.74952e-07 -0.000583095)
(0.000526665 -3.77586e-07 -0.000583137)
(0.000526705 -3.80258e-07 -0.00058318)
(0.000526745 -3.82967e-07 -0.000583223)
(0.000526786 -3.85716e-07 -0.000583267)
(0.000526827 -3.88504e-07 -0.000583311)
(0.000526869 -3.91333e-07 -0.000583356)
(0.000526911 -3.94203e-07 -0.000583402)
(0.000526954 -3.97116e-07 -0.000583449)
(0.000526998 -4.00072e-07 -0.000583496)
(0.000527042 -4.03072e-07 -0.000583544)
(0.000527087 -4.06118e-07 -0.000583592)
(0.000527133 -4.0921e-07 -0.000583642)
(0.000527179 -4.1235e-07 -0.000583692)
(0.000527226 -4.15538e-07 -0.000583743)
(0.000527274 -4.18776e-07 -0.000583794)
(0.000527323 -4.22064e-07 -0.000583847)
(0.000527372 -4.25405e-07 -0.0005839)
(0.000527422 -4.28799e-07 -0.000583954)
(0.000527473 -4.32248e-07 -0.000584009)
(0.000556353 -4.62709e-07 -7.20572e-12)
(0.000526162 -3.72573e-07 -0.000582583)
(0.000526198 -3.7517e-07 -0.000582622)
(0.000526233 -3.77804e-07 -0.00058266)
(0.00052627 -3.80476e-07 -0.0005827)
(0.000526307 -3.83185e-07 -0.000582739)
(0.000526344 -3.85933e-07 -0.00058278)
(0.000526382 -3.88721e-07 -0.000582821)
(0.000526421 -3.91549e-07 -0.000582862)
(0.00052646 -3.94419e-07 -0.000582905)
(0.0005265 -3.97331e-07 -0.000582947)
(0.00052654 -4.00287e-07 -0.000582991)
(0.000526581 -4.03287e-07 -0.000583035)
(0.000526623 -4.06332e-07 -0.00058308)
(0.000526665 -4.09423e-07 -0.000583125)
(0.000526708 -4.12562e-07 -0.000583171)
(0.000526751 -4.15749e-07 -0.000583218)
(0.000526795 -4.18986e-07 -0.000583266)
(0.00052684 -4.22274e-07 -0.000583314)
(0.000526886 -4.25614e-07 -0.000583363)
(0.000526932 -4.29007e-07 -0.000583413)
(0.000526979 -4.32455e-07 -0.000583464)
(0.000555825 -4.62855e-07 -6.99192e-12)
(0.000525736 -3.72791e-07 -0.000582114)
(0.000525769 -3.75388e-07 -0.000582149)
(0.000525802 -3.78022e-07 -0.000582184)
(0.000525835 -3.80692e-07 -0.00058222)
(0.000525869 -3.83401e-07 -0.000582256)
(0.000525903 -3.86149e-07 -0.000582293)
(0.000525938 -3.88937e-07 -0.000582331)
(0.000525974 -3.91764e-07 -0.000582369)
(0.000526009 -3.94634e-07 -0.000582407)
(0.000526046 -3.97546e-07 -0.000582447)
(0.000526083 -4.00501e-07 -0.000582486)
(0.00052612 -4.035e-07 -0.000582527)
(0.000526158 -4.06544e-07 -0.000582568)
(0.000526197 -4.09635e-07 -0.000582609)
(0.000526236 -4.12773e-07 -0.000582651)
(0.000526276 -4.1596e-07 -0.000582694)
(0.000526316 -4.19196e-07 -0.000582738)
(0.000526357 -4.22483e-07 -0.000582782)
(0.000526399 -4.25822e-07 -0.000582827)
(0.000526442 -4.29214e-07 -0.000582872)
(0.000526485 -4.32661e-07 -0.000582919)
(0.000555298 -4.63e-07 -6.77861e-12)
(0.000525311 -3.73008e-07 -0.000581644)
(0.00052534 -3.75605e-07 -0.000581676)
(0.00052537 -3.78238e-07 -0.000581708)
(0.000525401 -3.80909e-07 -0.000581741)
(0.000525431 -3.83617e-07 -0.000581774)
(0.000525463 -3.86364e-07 -0.000581807)
(0.000525494 -3.89151e-07 -0.000581841)
(0.000525526 -3.91979e-07 -0.000581876)
(0.000525559 -3.94848e-07 -0.000581911)
(0.000525592 -3.97759e-07 -0.000581946)
(0.000525626 -4.00713e-07 -0.000581982)
(0.00052566 -4.03712e-07 -0.000582019)
(0.000525694 -4.06756e-07 -0.000582056)
(0.000525729 -4.09846e-07 -0.000582093)
(0.000525765 -4.12983e-07 -0.000582132)
(0.000525801 -4.16169e-07 -0.00058217)
(0.000525838 -4.19404e-07 -0.00058221)
(0.000525875 -4.2269e-07 -0.00058225)
(0.000525913 -4.26028e-07 -0.000582291)
(0.000525952 -4.2942e-07 -0.000582332)
(0.000525991 -4.32865e-07 -0.000582374)
(0.000554771 -4.63143e-07 -6.5658e-12)
(0.000524886 -3.73224e-07 -0.000581175)
(0.000524912 -3.7582e-07 -0.000581204)
(0.000524939 -3.78453e-07 -0.000581232)
(0.000524966 -3.81124e-07 -0.000581262)
(0.000524994 -3.83832e-07 -0.000581291)
(0.000525022 -3.86579e-07 -0.000581321)
(0.000525051 -3.89365e-07 -0.000581352)
(0.00052508 -3.92192e-07 -0.000581383)
(0.000525109 -3.95061e-07 -0.000581414)
(0.000525139 -3.97971e-07 -0.000581446)
(0.000525169 -4.00925e-07 -0.000581478)
(0.0005252 -4.03923e-07 -0.000581511)
(0.000525231 -4.06966e-07 -0.000581544)
(0.000525262 -4.10056e-07 -0.000581578)
(0.000525294 -4.13192e-07 -0.000581612)
(0.000525327 -4.16377e-07 -0.000581647)
(0.00052536 -4.19612e-07 -0.000581683)
(0.000525394 -4.22897e-07 -0.000581718)
(0.000525428 -4.26234e-07 -0.000581755)
(0.000525462 -4.29624e-07 -0.000581792)
(0.000525498 -4.33068e-07 -0.00058183)
(0.000554244 -4.63285e-07 -6.35349e-12)
(0.000524461 -3.73439e-07 -0.000580707)
(0.000524484 -3.76035e-07 -0.000580732)
(0.000524508 -3.78668e-07 -0.000580757)
(0.000524533 -3.81338e-07 -0.000580783)
(0.000524557 -3.84045e-07 -0.000580809)
(0.000524582 -3.86792e-07 -0.000580836)
(0.000524607 -3.89578e-07 -0.000580863)
(0.000524633 -3.92404e-07 -0.00058089)
(0.000524659 -3.95272e-07 -0.000580918)
(0.000524686 -3.98182e-07 -0.000580946)
(0.000524712 -4.01135e-07 -0.000580975)
(0.00052474 -4.04133e-07 -0.000581004)
(0.000524767 -4.07175e-07 -0.000581033)
(0.000524795 -4.10264e-07 -0.000581063)
(0.000524824 -4.134e-07 -0.000581093)
(0.000524853 -4.16584e-07 -0.000581124)
(0.000524882 -4.19817e-07 -0.000581156)
(0.000524912 -4.23102e-07 -0.000581187)
(0.000524942 -4.26438e-07 -0.00058122)
(0.000524973 -4.29827e-07 -0.000581253)
(0.000525005 -4.3327e-07 -0.000581286)
(0.000553718 -4.63426e-07 -6.14168e-12)
(0.000524036 -3.73652e-07 -0.000580238)
(0.000524057 -3.76248e-07 -0.00058026)
(0.000524078 -3.78881e-07 -0.000580282)
(0.000524099 -3.8155e-07 -0.000580305)
(0.000524121 -3.84258e-07 -0.000580327)
(0.000524142 -3.87004e-07 -0.000580351)
(0.000524165 -3.89789e-07 -0.000580374)
(0.000524187 -3.92615e-07 -0.000580398)
(0.00052421 -3.95483e-07 -0.000580422)
(0.000524233 -3.98392e-07 -0.000580447)
(0.000524256 -4.01345e-07 -0.000580472)
(0.00052428 -4.04341e-07 -0.000580497)
(0.000524304 -4.07383e-07 -0.000580522)
(0.000524329 -4.10471e-07 -0.000580549)
(0.000524354 -4.13606e-07 -0.000580575)
(0.000524379 -4.16789e-07 -0.000580602)
(0.000524405 -4.20022e-07 -0.000580629)
(0.000524431 -4.23305e-07 -0.000580657)
(0.000524458 -4.2664e-07 -0.000580685)
(0.000524485 -4.30028e-07 -0.000580713)
(0.000524512 -4.3347e-07 -0.000580743)
(0.000553192 -4.63565e-07 -5.93037e-12)
(0.000523612 -3.73865e-07 -0.00057977)
(0.00052363 -3.76461e-07 -0.000579789)
(0.000523648 -3.79093e-07 -0.000579808)
(0.000523666 -3.81762e-07 -0.000579827)
(0.000523684 -3.84469e-07 -0.000579846)
(0.000523703 -3.87215e-07 -0.000579866)
(0.000523722 -3.9e-07 -0.000579886)
(0.000523741 -3.92825e-07 -0.000579906)
(0.000523761 -3.95692e-07 -0.000579927)
(0.000523781 -3.98601e-07 -0.000579948)
(0.000523801 -4.01553e-07 -0.000579969)
(0.000523821 -4.04549e-07 -0.00057999)
(0.000523842 -4.0759e-07 -0.000580012)
(0.000523863 -4.10677e-07 -0.000580034)
(0.000523884 -4.13811e-07 -0.000580057)
(0.000523906 -4.16993e-07 -0.00058008)
(0.000523928 -4.20225e-07 -0.000580103)
(0.00052395 -4.23507e-07 -0.000580127)
(0.000523973 -4.26841e-07 -0.000580151)
(0.000523996 -4.30228e-07 -0.000580175)
(0.00052402 -4.33669e-07 -0.0005802)
(0.000552666 -4.63703e-07 -5.71956e-12)
(0.000523188 -3.74096e-07 -0.000579302)
(0.000523203 -3.76692e-07 -0.000579318)
(0.000523218 -3.79324e-07 -0.000579333)
(0.000523233 -3.81993e-07 -0.000579349)
(0.000523248 -3.847e-07 -0.000579365)
(0.000523264 -3.87445e-07 -0.000579382)
(0.00052328 -3.9023e-07 -0.000579398)
(0.000523296 -3.93055e-07 -0.000579415)
(0.000523312 -3.95922e-07 -0.000579432)
(0.000523329 -3.9883e-07 -0.000579449)
(0.000523346 -4.01782e-07 -0.000579467)
(0.000523363 -4.04778e-07 -0.000579484)
(0.00052338 -4.07818e-07 -0.000579503)
(0.000523397 -4.10905e-07 -0.000579521)
(0.000523415 -4.14039e-07 -0.000579539)
(0.000523433 -4.1722e-07 -0.000579558)
(0.000523452 -4.20452e-07 -0.000579578)
(0.00052347 -4.23733e-07 -0.000579597)
(0.000523489 -4.27066e-07 -0.000579617)
(0.000523509 -4.30453e-07 -0.000579637)
(0.000523528 -4.33893e-07 -0.000579657)
(0.000552142 -4.63865e-07 -5.49761e-12)
(0.000522884 -3.81527e-07 -0.000578958)
(0.000522897 -3.84173e-07 -0.000578971)
(0.00052291 -3.86857e-07 -0.000578984)
(0.000522923 -3.89578e-07 -0.000578998)
(0.000522936 -3.92337e-07 -0.000579011)
(0.000522949 -3.95137e-07 -0.000579025)
(0.000522963 -3.97976e-07 -0.000579039)
(0.000522977 -4.00856e-07 -0.000579053)
(0.000522991 -4.03779e-07 -0.000579067)
(0.000523005 -4.06744e-07 -0.000579082)
(0.000523019 -4.09753e-07 -0.000579097)
(0.000523034 -4.12807e-07 -0.000579112)
(0.000523049 -4.15907e-07 -0.000579127)
(0.000523064 -4.19054e-07 -0.000579143)
(0.000523079 -4.22249e-07 -0.000579158)
(0.000523094 -4.25493e-07 -0.000579174)
(0.00052311 -4.28787e-07 -0.000579191)
(0.000523126 -4.32132e-07 -0.000579207)
(0.000523143 -4.3553e-07 -0.000579224)
(0.000523159 -4.38982e-07 -0.000579241)
(0.000523176 -4.4249e-07 -0.000579258)
(0.000551748 -4.7194e-07 -2.95454e-11)
)
;

boundaryField
{
    inlet
    {
        type            calculated;
        value           uniform (0 0 0);
    }
    outlet2
    {
        type            calculated;
        value           uniform (0 0 0);
    }
    outlet1
    {
        type            calculated;
        value           uniform (0 0 0);
    }
    wall
    {
        type            calculated;
        value           uniform (0 0 0);
    }
    symmetryBottom
    {
        type            symmetry;
    }
    symmetryZ0
    {
        type            symmetry;
    }
    symmetryZ05
    {
        type            symmetry;
    }
}


// ************************************************************************* //
