/*--------------------------------*- C++ -*----------------------------------*\
| =========                 |                                                 |
| \\      /  F ield         | OpenFOAM: The Open Source CFD Toolbox           |
|  \\    /   O peration     | Version:  2412                                  |
|   \\  /    A nd           | Website:  www.openfoam.com                      |
|    \\/     M anipulation  |                                                 |
\*---------------------------------------------------------------------------*/
FoamFile
{
    version     2.0;
    format      ascii;
    arch        "LSB;label=32;scalar=64";
    class       volVectorField;
    location    "9.96134e-07";
    object      rhoU_dof1;
}
// * * * * * * * * * * * * * * * * * * * * * * * * * * * * * * * * * * * * * //

dimensions      [0 0 0 0 0 0 0];

internalField   nonuniform List<vector> 
625
(
(0.0316945 4.05115e-07 3.04105e-06)
(-1.53964e-09 -1.09669e-13 2.55721e-06)
(-1.64801e-05 0.000149706 2.9266e-06)
(0.0316949 -1.644e-05 3.04117e-06)
(-1.53961e-09 1.54751e-12 2.55733e-06)
(-2.62345e-06 -4.41996e-08 2.89969e-06)
(0.0316949 -1.64456e-05 3.0411e-06)
(-1.53964e-09 1.5447e-12 2.55726e-06)
(-7.2744e-06 4.25148e-07 2.89998e-06)
(0.0316949 -1.64456e-05 3.0411e-06)
(-1.53964e-09 1.54469e-12 2.55726e-06)
(-7.25716e-06 4.23415e-07 2.89998e-06)
(0.0316949 -1.64456e-05 3.0411e-06)
(-1.53964e-09 1.54469e-12 2.55726e-06)
(-7.2572e-06 4.23419e-07 2.89998e-06)
(0.0316949 -1.64456e-05 3.0411e-06)
(-1.53964e-09 1.54469e-12 2.55726e-06)
(-7.2572e-06 4.23419e-07 2.89998e-06)
(0.0316949 -1.64456e-05 3.0411e-06)
(-1.53964e-09 1.54469e-12 2.55726e-06)
(-7.2572e-06 4.23419e-07 2.89998e-06)
(0.0316949 -1.64456e-05 3.0411e-06)
(-1.53964e-09 1.54469e-12 2.55726e-06)
(-7.2572e-06 4.23419e-07 2.89998e-06)
(0.0316949 -1.64456e-05 3.0411e-06)
(-1.53964e-09 1.54469e-12 2.55726e-06)
(-7.2572e-06 4.23419e-07 2.89998e-06)
(0.0316949 -1.64456e-05 3.0411e-06)
(-1.53964e-09 1.54469e-12 2.55726e-06)
(-7.2572e-06 4.23419e-07 2.89998e-06)
(0.0316949 -1.64456e-05 3.0411e-06)
(-1.53964e-09 1.54469e-12 2.55726e-06)
(-7.2572e-06 4.23419e-07 2.89998e-06)
(0.0316949 -1.64456e-05 3.0411e-06)
(-1.53964e-09 1.54469e-12 2.55726e-06)
(-7.2572e-06 4.23419e-07 2.89998e-06)
(0.0316949 -1.64456e-05 3.0411e-06)
(-1.53964e-09 1.54469e-12 2.55726e-06)
(-7.2572e-06 4.23419e-07 2.89998e-06)
(0.0316949 -1.64456e-05 3.0411e-06)
(-1.53964e-09 1.54469e-12 2.55726e-06)
(-7.2572e-06 4.23419e-07 2.89998e-06)
(0.0316949 -1.64456e-05 3.0411e-06)
(-1.53964e-09 1.54469e-12 2.55726e-06)
(-7.2572e-06 4.23419e-07 2.89998e-06)
(0.0316949 -1.64456e-05 3.0411e-06)
(-1.53964e-09 1.54469e-12 2.55726e-06)
(-7.2572e-06 4.23419e-07 2.89998e-06)
(0.0316949 -1.64456e-05 3.0411e-06)
(-1.53964e-09 1.54469e-12 2.55726e-06)
(-7.2572e-06 4.23419e-07 2.89998e-06)
(0.0316949 -1.64456e-05 3.0411e-06)
(-1.53964e-09 1.54469e-12 2.55726e-06)
(-7.2572e-06 4.23419e-07 2.89998e-06)
(0.0316949 -1.64456e-05 3.0411e-06)
(-1.53964e-09 1.54469e-12 2.55726e-06)
(-7.2572e-06 4.23419e-07 2.89998e-06)
(0.0316949 -1.64456e-05 3.0411e-06)
(-1.53964e-09 1.54469e-12 2.55726e-06)
(-7.2572e-06 4.23419e-07 2.89998e-06)
(0.0316949 -1.64456e-05 3.0411e-06)
(-1.53964e-09 1.54469e-12 2.55726e-06)
(-7.2572e-06 4.23419e-07 2.89998e-06)
(0.0316949 -1.64456e-05 3.0411e-06)
(-1.53964e-09 1.54469e-12 2.55726e-06)
(-7.2572e-06 4.23419e-07 2.89998e-06)
(0.0316949 -1.64456e-05 3.0411e-06)
(-1.53964e-09 1.54469e-12 2.55726e-06)
(-7.25686e-06 4.23386e-07 2.89996e-06)
(0.0316949 -1.64466e-05 3.0411e-06)
(-1.53964e-09 1.54493e-12 2.55726e-06)
(-7.40098e-06 4.37256e-07 2.91301e-06)
(0.0317023 -1.68868e-05 3.04178e-06)
(-1.54031e-09 1.66315e-12 2.55774e-06)
(-6.50286e-07 3.90954e-08 2.55398e-06)
(-7.72771e-05 -4.93311e-09 2.93399e-06)
(-7.78086e-05 -5.02576e-09 2.93589e-06)
(-7.83475e-05 -5.12091e-09 2.93781e-06)
(-7.88939e-05 -5.21864e-09 2.93977e-06)
(-7.94479e-05 -5.31904e-09 2.94176e-06)
(-8.00098e-05 -5.42221e-09 2.94378e-06)
(-8.05797e-05 -5.52826e-09 2.94583e-06)
(-8.11578e-05 -5.63729e-09 2.94792e-06)
(-8.17443e-05 -5.74939e-09 2.95005e-06)
(-8.23392e-05 -5.86467e-09 2.95221e-06)
(-8.29429e-05 -5.9833e-09 2.95441e-06)
(-8.35555e-05 -6.10535e-09 2.95664e-06)
(-8.41772e-05 -6.23095e-09 2.95892e-06)
(-8.48083e-05 -6.36028e-09 2.96123e-06)
(-8.54489e-05 -6.49343e-09 2.96359e-06)
(-8.60992e-05 -6.63059e-09 2.96599e-06)
(-8.67595e-05 -6.77186e-09 2.96843e-06)
(-8.74301e-05 -6.91749e-09 2.97092e-06)
(-8.8111e-05 -7.06756e-09 2.97345e-06)
(-8.88027e-05 -7.22232e-09 2.97603e-06)
(-8.95052e-05 -7.38188e-09 2.97866e-06)
(-0.00548635 0.000212103 3.20903e-06)
(-7.90817e-05 5.6124e-08 2.75381e-06)
(-7.96383e-05 5.69072e-08 2.75419e-06)
(-8.02029e-05 5.77068e-08 2.75458e-06)
(-8.07755e-05 5.85235e-08 2.75498e-06)
(-8.13563e-05 5.93575e-08 2.75538e-06)
(-8.19456e-05 6.02096e-08 2.75578e-06)
(-8.25434e-05 6.10801e-08 2.7562e-06)
(-8.315e-05 6.19696e-08 2.75661e-06)
(-8.37656e-05 6.28787e-08 2.75704e-06)
(-8.43905e-05 6.3808e-08 2.75747e-06)
(-8.50246e-05 6.47579e-08 2.75791e-06)
(-8.56684e-05 6.57293e-08 2.75835e-06)
(-8.63221e-05 6.67227e-08 2.7588e-06)
(-8.69856e-05 6.77387e-08 2.75926e-06)
(-8.76596e-05 6.87782e-08 2.75972e-06)
(-8.8344e-05 6.98417e-08 2.76019e-06)
(-8.90393e-05 7.09301e-08 2.76067e-06)
(-8.97455e-05 7.20441e-08 2.76116e-06)
(-9.04631e-05 7.31846e-08 2.76165e-06)
(-9.11922e-05 7.43523e-08 2.76215e-06)
(-9.19332e-05 7.55483e-08 2.76266e-06)
(0.000167984 1.4454e-05 2.95946e-06)
(-7.90174e-05 5.62462e-08 2.7521e-06)
(-7.95731e-05 5.70323e-08 2.75248e-06)
(-8.01368e-05 5.78349e-08 2.75286e-06)
(-8.07084e-05 5.86546e-08 2.75325e-06)
(-8.12883e-05 5.94919e-08 2.75364e-06)
(-8.18765e-05 6.03472e-08 2.75404e-06)
(-8.24734e-05 6.12211e-08 2.75445e-06)
(-8.3079e-05 6.21141e-08 2.75486e-06)
(-8.36936e-05 6.30268e-08 2.75527e-06)
(-8.43173e-05 6.39598e-08 2.7557e-06)
(-8.49504e-05 6.49136e-08 2.75612e-06)
(-8.55931e-05 6.5889e-08 2.75656e-06)
(-8.62455e-05 6.68865e-08 2.757e-06)
(-8.6908e-05 6.79068e-08 2.75745e-06)
(-8.75807e-05 6.89506e-08 2.75791e-06)
(-8.8264e-05 7.00187e-08 2.75837e-06)
(-8.89579e-05 7.11118e-08 2.75884e-06)
(-8.96629e-05 7.22307e-08 2.75932e-06)
(-9.03792e-05 7.33763e-08 2.7598e-06)
(-9.11069e-05 7.45493e-08 2.76029e-06)
(-9.18465e-05 7.57506e-08 2.76079e-06)
(8.46807e-05 3.76883e-07 2.96653e-06)
(-7.89538e-05 5.62002e-08 2.7499e-06)
(-7.95087e-05 5.69852e-08 2.75026e-06)
(-8.00714e-05 5.77868e-08 2.75063e-06)
(-8.06421e-05 5.86054e-08 2.751e-06)
(-8.12211e-05 5.94416e-08 2.75138e-06)
(-8.18083e-05 6.02957e-08 2.75176e-06)
(-8.24042e-05 6.11684e-08 2.75215e-06)
(-8.30088e-05 6.20602e-08 2.75254e-06)
(-8.36224e-05 6.29716e-08 2.75294e-06)
(-8.4245e-05 6.39032e-08 2.75335e-06)
(-8.4877e-05 6.48557e-08 2.75376e-06)
(-8.55186e-05 6.58297e-08 2.75417e-06)
(-8.61699e-05 6.68257e-08 2.7546e-06)
(-8.68313e-05 6.78445e-08 2.75503e-06)
(-8.75028e-05 6.88868e-08 2.75546e-06)
(-8.81849e-05 6.99533e-08 2.75591e-06)
(-8.88776e-05 7.10448e-08 2.75636e-06)
(-8.95813e-05 7.2162e-08 2.75681e-06)
(-9.02962e-05 7.33057e-08 2.75728e-06)
(-9.10227e-05 7.44769e-08 2.75775e-06)
(-9.17609e-05 7.56764e-08 2.75823e-06)
(8.53288e-05 5.74651e-07 2.96891e-06)
(-7.88903e-05 5.6163e-08 2.74771e-06)
(-7.94443e-05 5.69473e-08 2.74806e-06)
(-8.00061e-05 5.77481e-08 2.74841e-06)
(-8.05759e-05 5.85658e-08 2.74876e-06)
(-8.11539e-05 5.94011e-08 2.74912e-06)
(-8.17403e-05 6.02544e-08 2.74949e-06)
(-8.23351e-05 6.11262e-08 2.74986e-06)
(-8.29387e-05 6.20171e-08 2.75024e-06)
(-8.35512e-05 6.29275e-08 2.75062e-06)
(-8.41728e-05 6.38582e-08 2.75101e-06)
(-8.48037e-05 6.48097e-08 2.7514e-06)
(-8.54442e-05 6.57826e-08 2.7518e-06)
(-8.60944e-05 6.67775e-08 2.7522e-06)
(-8.67546e-05 6.77953e-08 2.75262e-06)
(-8.7425e-05 6.88364e-08 2.75303e-06)
(-8.81058e-05 6.99017e-08 2.75346e-06)
(-8.87973e-05 7.0992e-08 2.75389e-06)
(-8.94997e-05 7.21079e-08 2.75433e-06)
(-9.02134e-05 7.32504e-08 2.75477e-06)
(-9.09385e-05 7.44203e-08 2.75522e-06)
(-9.16754e-05 7.56184e-08 2.75568e-06)
(8.59821e-05 5.88413e-07 2.9713e-06)
(-7.88268e-05 5.61259e-08 2.74552e-06)
(-7.93799e-05 5.69093e-08 2.74585e-06)
(-7.99409e-05 5.77093e-08 2.74618e-06)
(-8.05097e-05 5.85263e-08 2.74652e-06)
(-8.10867e-05 5.93607e-08 2.74687e-06)
(-8.16721e-05 6.02131e-08 2.74722e-06)
(-8.2266e-05 6.1084e-08 2.74757e-06)
(-8.28685e-05 6.19739e-08 2.74793e-06)
(-8.34801e-05 6.28835e-08 2.7483e-06)
(-8.41006e-05 6.38131e-08 2.74867e-06)
(-8.47305e-05 6.47636e-08 2.74904e-06)
(-8.53698e-05 6.57355e-08 2.74943e-06)
(-8.60189e-05 6.67294e-08 2.74981e-06)
(-8.6678e-05 6.7746e-08 2.75021e-06)
(-8.73471e-05 6.8786e-08 2.75061e-06)
(-8.80268e-05 6.98502e-08 2.75101e-06)
(-8.8717e-05 7.09392e-08 2.75142e-06)
(-8.94182e-05 7.20539e-08 2.75184e-06)
(-9.01306e-05 7.31951e-08 2.75227e-06)
(-9.08544e-05 7.43636e-08 2.7527e-06)
(-9.15899e-05 7.55604e-08 2.75314e-06)
(8.66477e-05 6.03516e-07 2.9737e-06)
(-7.87634e-05 5.60887e-08 2.74333e-06)
(-7.93156e-05 5.68714e-08 2.74364e-06)
(-7.98756e-05 5.76706e-08 2.74396e-06)
(-8.04436e-05 5.84867e-08 2.74429e-06)
(-8.10197e-05 5.93203e-08 2.74462e-06)
(-8.1604e-05 6.01718e-08 2.74495e-06)
(-8.2197e-05 6.10418e-08 2.74529e-06)
(-8.27985e-05 6.19308e-08 2.74563e-06)
(-8.34089e-05 6.28394e-08 2.74598e-06)
(-8.40285e-05 6.37681e-08 2.74633e-06)
(-8.46573e-05 6.47176e-08 2.74669e-06)
(-8.52955e-05 6.56884e-08 2.74705e-06)
(-8.59435e-05 6.66812e-08 2.74742e-06)
(-8.66013e-05 6.76967e-08 2.7478e-06)
(-8.72694e-05 6.87356e-08 2.74818e-06)
(-8.79478e-05 6.97986e-08 2.74857e-06)
(-8.86368e-05 7.08864e-08 2.74896e-06)
(-8.93368e-05 7.19999e-08 2.74936e-06)
(-9.00479e-05 7.31398e-08 2.74976e-06)
(-9.07703e-05 7.4307e-08 2.75017e-06)
(-9.15045e-05 7.55024e-08 2.75059e-06)
(8.73304e-05 6.18647e-07 2.97611e-06)
(-7.87e-05 5.60516e-08 2.74114e-06)
(-7.92513e-05 5.68335e-08 2.74144e-06)
(-7.98104e-05 5.76318e-08 2.74174e-06)
(-8.03774e-05 5.84472e-08 2.74205e-06)
(-8.09526e-05 5.92799e-08 2.74237e-06)
(-8.15361e-05 6.01306e-08 2.74268e-06)
(-8.21279e-05 6.09997e-08 2.743e-06)
(-8.27285e-05 6.18878e-08 2.74333e-06)
(-8.33379e-05 6.27954e-08 2.74366e-06)
(-8.39564e-05 6.37231e-08 2.744e-06)
(-8.45841e-05 6.46716e-08 2.74434e-06)
(-8.52213e-05 6.56413e-08 2.74468e-06)
(-8.58681e-05 6.66331e-08 2.74504e-06)
(-8.65249e-05 6.76475e-08 2.74539e-06)
(-8.71917e-05 6.86853e-08 2.74576e-06)
(-8.78689e-05 6.97471e-08 2.74612e-06)
(-8.85568e-05 7.08337e-08 2.7465e-06)
(-8.92554e-05 7.19459e-08 2.74688e-06)
(-8.99652e-05 7.30846e-08 2.74726e-06)
(-9.06864e-05 7.42504e-08 2.74765e-06)
(-9.14191e-05 7.54444e-08 2.74805e-06)
(8.80302e-05 6.33814e-07 2.97852e-06)
(-7.86366e-05 5.60144e-08 2.73895e-06)
(-7.91871e-05 5.67956e-08 2.73924e-06)
(-7.97452e-05 5.75931e-08 2.73953e-06)
(-8.03114e-05 5.84076e-08 2.73982e-06)
(-8.08856e-05 5.92395e-08 2.74012e-06)
(-8.14681e-05 6.00893e-08 2.74042e-06)
(-8.2059e-05 6.09575e-08 2.74072e-06)
(-8.26586e-05 6.18447e-08 2.74103e-06)
(-8.32669e-05 6.27514e-08 2.74135e-06)
(-8.38844e-05 6.36781e-08 2.74166e-06)
(-8.4511e-05 6.46256e-08 2.74199e-06)
(-8.51471e-05 6.55943e-08 2.74232e-06)
(-8.57928e-05 6.6585e-08 2.74265e-06)
(-8.64484e-05 6.75983e-08 2.74299e-06)
(-8.71141e-05 6.86349e-08 2.74333e-06)
(-8.77901e-05 6.96956e-08 2.74368e-06)
(-8.84767e-05 7.0781e-08 2.74404e-06)
(-8.91741e-05 7.1892e-08 2.7444e-06)
(-8.98826e-05 7.30293e-08 2.74476e-06)
(-9.06024e-05 7.41939e-08 2.74513e-06)
(-9.13339e-05 7.53865e-08 2.74551e-06)
(8.87472e-05 6.49017e-07 2.98093e-06)
(-7.85733e-05 5.59793e-08 2.73677e-06)
(-7.91228e-05 5.67597e-08 2.73704e-06)
(-7.96801e-05 5.75565e-08 2.73731e-06)
(-8.02453e-05 5.83702e-08 2.73759e-06)
(-8.08186e-05 5.92012e-08 2.73787e-06)
(-8.14002e-05 6.00502e-08 2.73815e-06)
(-8.199e-05 6.09175e-08 2.73844e-06)
(-8.25886e-05 6.18038e-08 2.73873e-06)
(-8.3196e-05 6.27095e-08 2.73903e-06)
(-8.38123e-05 6.36353e-08 2.73933e-06)
(-8.44379e-05 6.45818e-08 2.73964e-06)
(-8.50729e-05 6.55495e-08 2.73995e-06)
(-8.57175e-05 6.65391e-08 2.74027e-06)
(-8.6372e-05 6.75514e-08 2.74059e-06)
(-8.70365e-05 6.85869e-08 2.74091e-06)
(-8.77113e-05 6.96464e-08 2.74124e-06)
(-8.83967e-05 7.07306e-08 2.74158e-06)
(-8.90928e-05 7.18404e-08 2.74192e-06)
(-8.98e-05 7.29765e-08 2.74226e-06)
(-9.05185e-05 7.41397e-08 2.74261e-06)
(-9.12486e-05 7.5331e-08 2.74297e-06)
(8.9469e-05 6.63404e-07 2.98331e-06)
(-7.8509e-05 5.60037e-08 2.73455e-06)
(-7.90576e-05 5.67841e-08 2.7348e-06)
(-7.9614e-05 5.7581e-08 2.73506e-06)
(-8.01783e-05 5.83947e-08 2.73532e-06)
(-8.07506e-05 5.92258e-08 2.73558e-06)
(-8.13311e-05 6.00748e-08 2.73585e-06)
(-8.19201e-05 6.09422e-08 2.73613e-06)
(-8.25177e-05 6.18285e-08 2.7364e-06)
(-8.31239e-05 6.27342e-08 2.73668e-06)
(-8.37393e-05 6.36601e-08 2.73697e-06)
(-8.43638e-05 6.46065e-08 2.73725e-06)
(-8.49976e-05 6.55743e-08 2.73755e-06)
(-8.56411e-05 6.65639e-08 2.73784e-06)
(-8.62943e-05 6.75761e-08 2.73815e-06)
(-8.69577e-05 6.86116e-08 2.73845e-06)
(-8.76313e-05 6.96711e-08 2.73876e-06)
(-8.83154e-05 7.07553e-08 2.73908e-06)
(-8.90103e-05 7.1865e-08 2.7394e-06)
(-8.97162e-05 7.3001e-08 2.73973e-06)
(-9.04333e-05 7.41641e-08 2.74006e-06)
(-9.11621e-05 7.53553e-08 2.74039e-06)
(8.97109e-05 6.46339e-07 2.98381e-06)
(-7.84447e-05 5.6028e-08 2.73233e-06)
(-7.89925e-05 5.68085e-08 2.73257e-06)
(-7.9548e-05 5.76054e-08 2.73281e-06)
(-8.01112e-05 5.84192e-08 2.73306e-06)
(-8.06826e-05 5.92504e-08 2.7333e-06)
(-8.12622e-05 6.00994e-08 2.73356e-06)
(-8.18502e-05 6.09668e-08 2.73381e-06)
(-8.24467e-05 6.18531e-08 2.73407e-06)
(-8.3052e-05 6.2759e-08 2.73433e-06)
(-8.36662e-05 6.36848e-08 2.7346e-06)
(-8.42896e-05 6.46313e-08 2.73487e-06)
(-8.49224e-05 6.55991e-08 2.73515e-06)
(-8.55647e-05 6.65887e-08 2.73542e-06)
(-8.62169e-05 6.76009e-08 2.73571e-06)
(-8.68789e-05 6.86364e-08 2.736e-06)
(-8.75513e-05 6.96958e-08 2.73629e-06)
(-8.82342e-05 7.078e-08 2.73658e-06)
(-8.89278e-05 7.18897e-08 2.73689e-06)
(-8.96324e-05 7.30256e-08 2.73719e-06)
(-9.03483e-05 7.41888e-08 2.7375e-06)
(-9.10756e-05 7.53799e-08 2.73782e-06)
(8.99162e-05 6.25774e-07 2.98228e-06)
(-7.83805e-05 5.60521e-08 2.73011e-06)
(-7.89274e-05 5.68327e-08 2.73034e-06)
(-7.94819e-05 5.76297e-08 2.73056e-06)
(-8.00443e-05 5.84436e-08 2.73079e-06)
(-8.06147e-05 5.92748e-08 2.73102e-06)
(-8.11934e-05 6.01239e-08 2.73126e-06)
(-8.17803e-05 6.09913e-08 2.7315e-06)
(-8.23758e-05 6.18777e-08 2.73174e-06)
(-8.298e-05 6.27836e-08 2.73199e-06)
(-8.35933e-05 6.37095e-08 2.73224e-06)
(-8.42155e-05 6.4656e-08 2.73249e-06)
(-8.48472e-05 6.56237e-08 2.73275e-06)
(-8.54884e-05 6.66134e-08 2.73301e-06)
(-8.61393e-05 6.76256e-08 2.73327e-06)
(-8.68003e-05 6.86611e-08 2.73354e-06)
(-8.74714e-05 6.97205e-08 2.73381e-06)
(-8.81531e-05 7.08046e-08 2.73409e-06)
(-8.88454e-05 7.19142e-08 2.73437e-06)
(-8.95487e-05 7.30502e-08 2.73466e-06)
(-9.02632e-05 7.42132e-08 2.73495e-06)
(-9.09893e-05 7.54042e-08 2.73525e-06)
(9.0128e-05 6.04617e-07 2.98071e-06)
(-7.83163e-05 5.60762e-08 2.7279e-06)
(-7.88623e-05 5.68569e-08 2.72811e-06)
(-7.94159e-05 5.76539e-08 2.72832e-06)
(-7.99774e-05 5.84679e-08 2.72853e-06)
(-8.05469e-05 5.92991e-08 2.72875e-06)
(-8.11245e-05 6.01483e-08 2.72897e-06)
(-8.17105e-05 6.10158e-08 2.72919e-06)
(-8.2305e-05 6.19022e-08 2.72941e-06)
(-8.29082e-05 6.28081e-08 2.72964e-06)
(-8.35203e-05 6.3734e-08 2.72987e-06)
(-8.41415e-05 6.46805e-08 2.73011e-06)
(-8.47721e-05 6.56483e-08 2.73035e-06)
(-8.54121e-05 6.66379e-08 2.73059e-06)
(-8.60619e-05 6.76501e-08 2.73084e-06)
(-8.67217e-05 6.86856e-08 2.73109e-06)
(-8.73916e-05 6.9745e-08 2.73134e-06)
(-8.8072e-05 7.08291e-08 2.7316e-06)
(-8.87631e-05 7.19387e-08 2.73186e-06)
(-8.94651e-05 7.30745e-08 2.73213e-06)
(-9.01783e-05 7.42375e-08 2.7324e-06)
(-9.09029e-05 7.54284e-08 2.73267e-06)
(9.0347e-05 5.82926e-07 2.97914e-06)
(-7.82522e-05 5.61002e-08 2.72569e-06)
(-7.87973e-05 5.68809e-08 2.72588e-06)
(-7.935e-05 5.7678e-08 2.72607e-06)
(-7.99105e-05 5.8492e-08 2.72627e-06)
(-8.04791e-05 5.93234e-08 2.72647e-06)
(-8.10557e-05 6.01725e-08 2.72667e-06)
(-8.16407e-05 6.10401e-08 2.72688e-06)
(-8.22342e-05 6.19265e-08 2.72709e-06)
(-8.28364e-05 6.28324e-08 2.7273e-06)
(-8.34474e-05 6.37584e-08 2.72751e-06)
(-8.40676e-05 6.47049e-08 2.72773e-06)
(-8.4697e-05 6.56727e-08 2.72795e-06)
(-8.53359e-05 6.66623e-08 2.72818e-06)
(-8.59846e-05 6.76745e-08 2.72841e-06)
(-8.66431e-05 6.871e-08 2.72864e-06)
(-8.73119e-05 6.97693e-08 2.72887e-06)
(-8.7991e-05 7.08534e-08 2.72911e-06)
(-8.86808e-05 7.19629e-08 2.72935e-06)
(-8.93815e-05 7.30987e-08 2.7296e-06)
(-9.00934e-05 7.42616e-08 2.72985e-06)
(-9.08166e-05 7.54525e-08 2.7301e-06)
(9.05732e-05 5.60703e-07 2.97757e-06)
(-7.81881e-05 5.61241e-08 2.72347e-06)
(-7.87323e-05 5.69049e-08 2.72365e-06)
(-7.92841e-05 5.7702e-08 2.72383e-06)
(-7.98437e-05 5.85161e-08 2.72401e-06)
(-8.04113e-05 5.93475e-08 2.72419e-06)
(-8.0987e-05 6.01967e-08 2.72438e-06)
(-8.15709e-05 6.10643e-08 2.72457e-06)
(-8.21634e-05 6.19508e-08 2.72476e-06)
(-8.27645e-05 6.28567e-08 2.72496e-06)
(-8.33746e-05 6.37826e-08 2.72515e-06)
(-8.39936e-05 6.47292e-08 2.72536e-06)
(-8.46219e-05 6.5697e-08 2.72556e-06)
(-8.52598e-05 6.66866e-08 2.72577e-06)
(-8.59072e-05 6.76988e-08 2.72598e-06)
(-8.65647e-05 6.87342e-08 2.72619e-06)
(-8.72322e-05 6.97935e-08 2.7264e-06)
(-8.79101e-05 7.08776e-08 2.72662e-06)
(-8.85986e-05 7.1987e-08 2.72685e-06)
(-8.9298e-05 7.31228e-08 2.72707e-06)
(-9.00085e-05 7.42856e-08 2.7273e-06)
(-9.07305e-05 7.54764e-08 2.72754e-06)
(9.08065e-05 5.37951e-07 2.976e-06)
(-7.81241e-05 5.61479e-08 2.72126e-06)
(-7.86673e-05 5.69287e-08 2.72143e-06)
(-7.92183e-05 5.7726e-08 2.72159e-06)
(-7.97769e-05 5.854e-08 2.72175e-06)
(-8.03436e-05 5.93715e-08 2.72192e-06)
(-8.09183e-05 6.02207e-08 2.72209e-06)
(-8.15013e-05 6.10883e-08 2.72226e-06)
(-8.20927e-05 6.19748e-08 2.72244e-06)
(-8.26929e-05 6.28808e-08 2.72262e-06)
(-8.33018e-05 6.38067e-08 2.7228e-06)
(-8.39198e-05 6.47533e-08 2.72298e-06)
(-8.4547e-05 6.57211e-08 2.72317e-06)
(-8.51836e-05 6.67107e-08 2.72336e-06)
(-8.583e-05 6.77229e-08 2.72355e-06)
(-8.64862e-05 6.87583e-08 2.72374e-06)
(-8.71525e-05 6.98176e-08 2.72394e-06)
(-8.78292e-05 7.09015e-08 2.72414e-06)
(-8.85165e-05 7.2011e-08 2.72434e-06)
(-8.92146e-05 7.31466e-08 2.72455e-06)
(-8.99238e-05 7.43094e-08 2.72476e-06)
(-9.06443e-05 7.55e-08 2.72497e-06)
(9.10471e-05 5.1467e-07 2.97442e-06)
(-7.80601e-05 5.61716e-08 2.71906e-06)
(-7.86025e-05 5.69524e-08 2.7192e-06)
(-7.91525e-05 5.77497e-08 2.71935e-06)
(-7.97102e-05 5.85638e-08 2.7195e-06)
(-8.02759e-05 5.93953e-08 2.71965e-06)
(-8.08496e-05 6.02446e-08 2.7198e-06)
(-8.14317e-05 6.11123e-08 2.71996e-06)
(-8.20221e-05 6.19988e-08 2.72012e-06)
(-8.26212e-05 6.29047e-08 2.72028e-06)
(-8.32291e-05 6.38307e-08 2.72044e-06)
(-8.3846e-05 6.47773e-08 2.72061e-06)
(-8.44721e-05 6.57451e-08 2.72078e-06)
(-8.51076e-05 6.67347e-08 2.72095e-06)
(-8.57528e-05 6.77468e-08 2.72112e-06)
(-8.64079e-05 6.87822e-08 2.7213e-06)
(-8.7073e-05 6.98414e-08 2.72147e-06)
(-8.77484e-05 7.09253e-08 2.72166e-06)
(-8.84344e-05 7.20347e-08 2.72184e-06)
(-8.91312e-05 7.31703e-08 2.72203e-06)
(-8.98391e-05 7.43329e-08 2.72222e-06)
(-9.05583e-05 7.55235e-08 2.72241e-06)
(9.12948e-05 4.90865e-07 2.97284e-06)
(-7.79961e-05 5.61951e-08 2.71685e-06)
(-7.85376e-05 5.6976e-08 2.71698e-06)
(-7.90867e-05 5.77733e-08 2.71711e-06)
(-7.96435e-05 5.85875e-08 2.71725e-06)
(-8.02082e-05 5.9419e-08 2.71738e-06)
(-8.07811e-05 6.02683e-08 2.71752e-06)
(-8.1362e-05 6.1136e-08 2.71766e-06)
(-8.19515e-05 6.20226e-08 2.7178e-06)
(-8.25496e-05 6.29285e-08 2.71794e-06)
(-8.31564e-05 6.38545e-08 2.71809e-06)
(-8.37722e-05 6.48011e-08 2.71824e-06)
(-8.43972e-05 6.57688e-08 2.71839e-06)
(-8.50316e-05 6.67584e-08 2.71854e-06)
(-8.56757e-05 6.77706e-08 2.7187e-06)
(-8.63295e-05 6.88059e-08 2.71885e-06)
(-8.69934e-05 6.98651e-08 2.71901e-06)
(-8.76677e-05 7.0949e-08 2.71917e-06)
(-8.83524e-05 7.20582e-08 2.71934e-06)
(-8.90479e-05 7.31938e-08 2.71951e-06)
(-8.97545e-05 7.43563e-08 2.71968e-06)
(-9.04723e-05 7.55468e-08 2.71985e-06)
(9.15496e-05 4.66536e-07 2.97127e-06)
(-7.79322e-05 5.62184e-08 2.71464e-06)
(-7.84729e-05 5.69994e-08 2.71476e-06)
(-7.9021e-05 5.77968e-08 2.71488e-06)
(-7.95769e-05 5.8611e-08 2.71499e-06)
(-8.01407e-05 5.94426e-08 2.71511e-06)
(-8.07125e-05 6.02919e-08 2.71523e-06)
(-8.12926e-05 6.11596e-08 2.71536e-06)
(-8.18809e-05 6.20462e-08 2.71548e-06)
(-8.2478e-05 6.29522e-08 2.71561e-06)
(-8.30838e-05 6.38782e-08 2.71574e-06)
(-8.36985e-05 6.48247e-08 2.71587e-06)
(-8.43224e-05 6.57924e-08 2.716e-06)
(-8.49558e-05 6.67821e-08 2.71614e-06)
(-8.55986e-05 6.77941e-08 2.71627e-06)
(-8.62513e-05 6.88294e-08 2.71641e-06)
(-8.6914e-05 6.98886e-08 2.71655e-06)
(-8.75869e-05 7.09724e-08 2.7167e-06)
(-8.82705e-05 7.20816e-08 2.71684e-06)
(-8.89646e-05 7.3217e-08 2.71699e-06)
(-8.96699e-05 7.43794e-08 2.71714e-06)
(-9.03864e-05 7.55698e-08 2.71729e-06)
(9.18115e-05 4.41689e-07 2.96969e-06)
(-7.78683e-05 5.62417e-08 2.71244e-06)
(-7.84081e-05 5.70227e-08 2.71254e-06)
(-7.89554e-05 5.78201e-08 2.71264e-06)
(-7.95103e-05 5.86344e-08 2.71274e-06)
(-8.00731e-05 5.94659e-08 2.71285e-06)
(-8.0644e-05 6.03153e-08 2.71295e-06)
(-8.1223e-05 6.1183e-08 2.71306e-06)
(-8.18105e-05 6.20696e-08 2.71317e-06)
(-8.24065e-05 6.29756e-08 2.71328e-06)
(-8.30112e-05 6.39016e-08 2.71339e-06)
(-8.36249e-05 6.48481e-08 2.7135e-06)
(-8.42477e-05 6.58159e-08 2.71362e-06)
(-8.48798e-05 6.68054e-08 2.71373e-06)
(-8.55216e-05 6.78175e-08 2.71385e-06)
(-8.61731e-05 6.88527e-08 2.71397e-06)
(-8.68346e-05 6.99118e-08 2.71409e-06)
(-8.75064e-05 7.09956e-08 2.71422e-06)
(-8.81885e-05 7.21047e-08 2.71434e-06)
(-8.88815e-05 7.324e-08 2.71447e-06)
(-8.95854e-05 7.44024e-08 2.7146e-06)
(-9.03005e-05 7.55926e-08 2.71473e-06)
(9.20805e-05 4.16324e-07 2.96811e-06)
(-7.78045e-05 5.62647e-08 2.71024e-06)
(-7.83434e-05 5.70458e-08 2.71032e-06)
(-7.88897e-05 5.78432e-08 2.71041e-06)
(-7.94438e-05 5.86575e-08 2.71049e-06)
(-8.00057e-05 5.94891e-08 2.71058e-06)
(-8.05755e-05 6.03385e-08 2.71067e-06)
(-8.11536e-05 6.12063e-08 2.71076e-06)
(-8.17401e-05 6.20929e-08 2.71085e-06)
(-8.2335e-05 6.29989e-08 2.71095e-06)
(-8.29387e-05 6.39248e-08 2.71104e-06)
(-8.35513e-05 6.48714e-08 2.71114e-06)
(-8.4173e-05 6.58391e-08 2.71123e-06)
(-8.48041e-05 6.68286e-08 2.71133e-06)
(-8.54446e-05 6.78406e-08 2.71143e-06)
(-8.6095e-05 6.88758e-08 2.71153e-06)
(-8.67553e-05 6.99349e-08 2.71164e-06)
(-8.74258e-05 7.10185e-08 2.71174e-06)
(-8.81067e-05 7.21276e-08 2.71185e-06)
(-8.87984e-05 7.32628e-08 2.71196e-06)
(-8.9501e-05 7.4425e-08 2.71207e-06)
(-9.02148e-05 7.56152e-08 2.71218e-06)
(9.23566e-05 3.90445e-07 2.96652e-06)
(-7.77407e-05 5.62877e-08 2.70804e-06)
(-7.82787e-05 5.70688e-08 2.70811e-06)
(-7.88242e-05 5.78663e-08 2.70818e-06)
(-7.93773e-05 5.86805e-08 2.70825e-06)
(-7.99382e-05 5.95122e-08 2.70832e-06)
(-8.05071e-05 6.03616e-08 2.70839e-06)
(-8.10843e-05 6.12294e-08 2.70847e-06)
(-8.16696e-05 6.21159e-08 2.70854e-06)
(-8.22636e-05 6.3022e-08 2.70862e-06)
(-8.28662e-05 6.39479e-08 2.70869e-06)
(-8.34778e-05 6.48944e-08 2.70877e-06)
(-8.40984e-05 6.58621e-08 2.70885e-06)
(-8.47283e-05 6.68516e-08 2.70893e-06)
(-8.53678e-05 6.78636e-08 2.70901e-06)
(-8.60169e-05 6.88987e-08 2.7091e-06)
(-8.6676e-05 6.99577e-08 2.70918e-06)
(-8.73453e-05 7.10412e-08 2.70927e-06)
(-8.8025e-05 7.21502e-08 2.70936e-06)
(-8.87153e-05 7.32853e-08 2.70944e-06)
(-8.94167e-05 7.44475e-08 2.70953e-06)
(-9.0129e-05 7.56375e-08 2.70963e-06)
(9.26398e-05 3.64049e-07 2.96494e-06)
(-7.7677e-05 5.63132e-08 2.70584e-06)
(-7.82142e-05 5.70944e-08 2.70589e-06)
(-7.87587e-05 5.78919e-08 2.70595e-06)
(-7.93109e-05 5.87063e-08 2.706e-06)
(-7.98709e-05 5.9538e-08 2.70606e-06)
(-8.04389e-05 6.03876e-08 2.70611e-06)
(-8.10149e-05 6.12554e-08 2.70617e-06)
(-8.15994e-05 6.2142e-08 2.70623e-06)
(-8.21923e-05 6.30481e-08 2.70629e-06)
(-8.27939e-05 6.39741e-08 2.70635e-06)
(-8.34043e-05 6.49207e-08 2.70641e-06)
(-8.40238e-05 6.58884e-08 2.70647e-06)
(-8.46527e-05 6.6878e-08 2.70654e-06)
(-8.52909e-05 6.78899e-08 2.7066e-06)
(-8.59389e-05 6.89251e-08 2.70667e-06)
(-8.65968e-05 6.99841e-08 2.70673e-06)
(-8.72649e-05 7.10677e-08 2.7068e-06)
(-8.79433e-05 7.21766e-08 2.70687e-06)
(-8.86324e-05 7.33118e-08 2.70694e-06)
(-8.93324e-05 7.44739e-08 2.70701e-06)
(-9.00435e-05 7.56639e-08 2.70708e-06)
(9.28969e-05 3.39564e-07 2.9633e-06)
(-7.76291e-05 5.72915e-08 2.70418e-06)
(-7.81655e-05 5.80861e-08 2.70422e-06)
(-7.87095e-05 5.88974e-08 2.70426e-06)
(-7.9261e-05 5.97258e-08 2.7043e-06)
(-7.98203e-05 6.05718e-08 2.70435e-06)
(-8.03875e-05 6.14359e-08 2.70439e-06)
(-8.09629e-05 6.23186e-08 2.70444e-06)
(-8.15465e-05 6.32205e-08 2.70448e-06)
(-8.21387e-05 6.41421e-08 2.70453e-06)
(-8.27394e-05 6.5084e-08 2.70458e-06)
(-8.33491e-05 6.60469e-08 2.70463e-06)
(-8.39678e-05 6.70312e-08 2.70468e-06)
(-8.45958e-05 6.80377e-08 2.70473e-06)
(-8.52332e-05 6.90671e-08 2.70478e-06)
(-8.58803e-05 7.012e-08 2.70483e-06)
(-8.65373e-05 7.11971e-08 2.70488e-06)
(-8.72044e-05 7.22993e-08 2.70493e-06)
(-8.7882e-05 7.34272e-08 2.70499e-06)
(-8.85701e-05 7.45818e-08 2.70504e-06)
(-8.92691e-05 7.57638e-08 2.70509e-06)
(-8.99791e-05 7.69741e-08 2.70515e-06)
(0.000100836 -1.30992e-07 2.99093e-06)
)
;

boundaryField
{
    inlet
    {
        type            calculated;
        value           uniform (0 0 0);
    }
    outlet2
    {
        type            calculated;
        value           uniform (0 0 0);
    }
    outlet1
    {
        type            calculated;
        value           uniform (0 0 0);
    }
    wall
    {
        type            calculated;
        value           uniform (0 0 0);
    }
    symmetryBottom
    {
        type            symmetry;
    }
    symmetryZ0
    {
        type            symmetry;
    }
    symmetryZ05
    {
        type            symmetry;
    }
}


// ************************************************************************* //
