/*--------------------------------*- C++ -*----------------------------------*\
| =========                 |                                                 |
| \\      /  F ield         | OpenFOAM: The Open Source CFD Toolbox           |
|  \\    /   O peration     | Version:  2412                                  |
|   \\  /    A nd           | Website:  www.openfoam.com                      |
|    \\/     M anipulation  |                                                 |
\*---------------------------------------------------------------------------*/
FoamFile
{
    version     2.0;
    format      ascii;
    arch        "LSB;label=32;scalar=64";
    class       volVectorField;
    location    "9.96134e-07";
    object      rhoU_dof2;
}
// * * * * * * * * * * * * * * * * * * * * * * * * * * * * * * * * * * * * * //

dimensions      [0 0 0 0 0 0 0];

internalField   nonuniform List<vector> 
625
(
(8.77275e-06 -0.000163945 4.71279e-10)
(1.64592e-05 -0.000146736 5.05087e-10)
(-8.568e-08 3.01296e-06 -0.000561491)
(-6.48809e-06 3.924e-06 4.12107e-10)
(2.42148e-06 3.01352e-06 4.2634e-10)
(-3.62064e-07 3.02195e-06 -0.000561519)
(-1.4029e-06 3.41149e-06 4.52935e-10)
(7.07185e-06 2.54454e-06 4.75876e-10)
(-3.61585e-07 3.02189e-06 -0.000561503)
(-1.42149e-06 3.41335e-06 4.52852e-10)
(7.05461e-06 2.54627e-06 4.75766e-10)
(-3.61586e-07 3.02189e-06 -0.000561503)
(-1.42144e-06 3.41335e-06 4.52852e-10)
(7.05465e-06 2.54626e-06 4.75766e-10)
(-3.61586e-07 3.02189e-06 -0.000561503)
(-1.42144e-06 3.41335e-06 4.52852e-10)
(7.05465e-06 2.54627e-06 4.75766e-10)
(-3.61586e-07 3.02189e-06 -0.000561503)
(-1.42144e-06 3.41335e-06 4.52852e-10)
(7.05465e-06 2.54627e-06 4.75766e-10)
(-3.61586e-07 3.02189e-06 -0.000561503)
(-1.42144e-06 3.41335e-06 4.52852e-10)
(7.05465e-06 2.54627e-06 4.75766e-10)
(-3.61586e-07 3.02189e-06 -0.000561503)
(-1.42144e-06 3.41335e-06 4.52852e-10)
(7.05465e-06 2.54627e-06 4.75766e-10)
(-3.61586e-07 3.02189e-06 -0.000561503)
(-1.42144e-06 3.41335e-06 4.52852e-10)
(7.05465e-06 2.54627e-06 4.75766e-10)
(-3.61586e-07 3.02189e-06 -0.000561503)
(-1.42144e-06 3.41335e-06 4.52852e-10)
(7.05465e-06 2.54627e-06 4.75766e-10)
(-3.61586e-07 3.02189e-06 -0.000561503)
(-1.42144e-06 3.41335e-06 4.52852e-10)
(7.05465e-06 2.54627e-06 4.75766e-10)
(-3.61586e-07 3.02189e-06 -0.000561503)
(-1.42144e-06 3.41335e-06 4.52852e-10)
(7.05465e-06 2.54627e-06 4.75766e-10)
(-3.61586e-07 3.02189e-06 -0.000561503)
(-1.42144e-06 3.41335e-06 4.52852e-10)
(7.05465e-06 2.54627e-06 4.75766e-10)
(-3.61586e-07 3.02189e-06 -0.000561503)
(-1.42144e-06 3.41335e-06 4.52852e-10)
(7.05465e-06 2.54627e-06 4.75766e-10)
(-3.61586e-07 3.02189e-06 -0.000561503)
(-1.42144e-06 3.41335e-06 4.52852e-10)
(7.05465e-06 2.54627e-06 4.75766e-10)
(-3.61586e-07 3.02189e-06 -0.000561503)
(-1.42144e-06 3.41335e-06 4.52852e-10)
(7.05465e-06 2.54627e-06 4.75766e-10)
(-3.61586e-07 3.02189e-06 -0.000561503)
(-1.42144e-06 3.41335e-06 4.52852e-10)
(7.05465e-06 2.54627e-06 4.75766e-10)
(-3.61586e-07 3.02189e-06 -0.000561503)
(-1.42144e-06 3.41335e-06 4.52852e-10)
(7.05465e-06 2.54627e-06 4.75766e-10)
(-3.61586e-07 3.02189e-06 -0.000561503)
(-1.42144e-06 3.41335e-06 4.52852e-10)
(7.05465e-06 2.54627e-06 4.75766e-10)
(-3.61586e-07 3.02189e-06 -0.000561503)
(-1.42144e-06 3.41335e-06 4.52852e-10)
(7.05465e-06 2.54627e-06 4.75766e-10)
(-3.61586e-07 3.02189e-06 -0.000561503)
(-1.42144e-06 3.41335e-06 4.52852e-10)
(7.05465e-06 2.54626e-06 4.75766e-10)
(-3.61586e-07 3.02189e-06 -0.000561503)
(-1.42144e-06 3.41335e-06 4.52852e-10)
(7.0546e-06 2.54627e-06 4.75765e-10)
(-3.60899e-07 3.02184e-06 -0.000561503)
(-1.42332e-06 3.41353e-06 4.52711e-10)
(7.08202e-06 2.54423e-06 4.75658e-10)
(3.31525e-07 2.97878e-06 -0.000561504)
(-4.91259e-07 3.35695e-06 -2.69144e-12)
(-5.21422e-07 3.00013e-06 -3.50683e-12)
(-6.60651e-07 3.01411e-06 1.1075e-08)
(0.00473658 -0.00017544 1.87374e-09)
(0.00476899 -0.000176849 1.90989e-09)
(0.00480186 -0.00017828 1.94696e-09)
(0.00483517 -0.000179735 1.98497e-09)
(0.00486895 -0.000181213 2.02397e-09)
(0.00490321 -0.000182715 2.06398e-09)
(0.00493795 -0.000184242 2.10503e-09)
(0.00497319 -0.000185794 2.14717e-09)
(0.00500893 -0.000187372 2.19043e-09)
(0.00504519 -0.000188977 2.23485e-09)
(0.00508198 -0.000190609 2.28047e-09)
(0.00511931 -0.000192269 2.32734e-09)
(0.00515719 -0.000193958 2.37549e-09)
(0.00519563 -0.000195677 2.42498e-09)
(0.00523465 -0.000197425 2.47585e-09)
(0.00527426 -0.000199205 2.52816e-09)
(0.00531447 -0.000201017 2.58195e-09)
(0.00535531 -0.000202861 2.63728e-09)
(0.00539677 -0.000204739 2.69422e-09)
(0.00543888 -0.000206652 2.75282e-09)
(0.00548165 -0.000208601 2.81314e-09)
(2.31211e-08 3.39381e-06 -0.000629828)
(-0.000133457 -7.45555e-06 1.92465e-09)
(-0.000134852 -7.61128e-06 1.93869e-09)
(-0.000136272 -7.77058e-06 1.95293e-09)
(-0.00013772 -7.93355e-06 1.96738e-09)
(-0.000139195 -8.10032e-06 1.98205e-09)
(-0.000140698 -8.27099e-06 1.99693e-09)
(-0.000142231 -8.44571e-06 2.01204e-09)
(-0.000143793 -8.62458e-06 2.02737e-09)
(-0.000145386 -8.80776e-06 2.04294e-09)
(-0.000147011 -8.99537e-06 2.05875e-09)
(-0.000148668 -9.18756e-06 2.0748e-09)
(-0.000150359 -9.38449e-06 2.0911e-09)
(-0.000152084 -9.58631e-06 2.10766e-09)
(-0.000153844 -9.79319e-06 2.12448e-09)
(-0.000155641 -1.00053e-05 2.14157e-09)
(-0.000157475 -1.02228e-05 2.15893e-09)
(-0.000159348 -1.04459e-05 2.17657e-09)
(-0.00016126 -1.06748e-05 2.1945e-09)
(-0.000163213 -1.09096e-05 2.21273e-09)
(-0.000165209 -1.11507e-05 2.23125e-09)
(-0.000167248 -1.13982e-05 2.25009e-09)
(-4.24632e-07 3.16088e-06 -0.000587707)
(-7.1871e-05 2.65121e-06 1.76898e-09)
(-7.23957e-05 2.65153e-06 1.78135e-09)
(-7.29282e-05 2.65192e-06 1.79388e-09)
(-7.34685e-05 2.65238e-06 1.8066e-09)
(-7.40168e-05 2.65292e-06 1.8195e-09)
(-7.45734e-05 2.65353e-06 1.83258e-09)
(-7.51384e-05 2.65422e-06 1.84585e-09)
(-7.5712e-05 2.655e-06 1.85931e-09)
(-7.62944e-05 2.65587e-06 1.87297e-09)
(-7.68857e-05 2.65683e-06 1.88684e-09)
(-7.74863e-05 2.65788e-06 1.90091e-09)
(-7.80964e-05 2.65904e-06 1.91519e-09)
(-7.8716e-05 2.6603e-06 1.92969e-09)
(-7.93456e-05 2.66168e-06 1.9444e-09)
(-7.99853e-05 2.66317e-06 1.95935e-09)
(-8.06354e-05 2.66478e-06 1.97452e-09)
(-8.1296e-05 2.66652e-06 1.98993e-09)
(-8.19676e-05 2.66839e-06 2.00559e-09)
(-8.26503e-05 2.6704e-06 2.02149e-09)
(-8.33444e-05 2.67256e-06 2.03764e-09)
(-8.40502e-05 2.67488e-06 2.05405e-09)
(-4.30236e-07 3.1587e-06 -0.000587293)
(-7.24832e-05 2.5278e-06 1.70356e-09)
(-7.30101e-05 2.52547e-06 1.7155e-09)
(-7.35448e-05 2.52313e-06 1.72761e-09)
(-7.40874e-05 2.52078e-06 1.73989e-09)
(-7.46379e-05 2.51843e-06 1.75234e-09)
(-7.51967e-05 2.51606e-06 1.76498e-09)
(-7.57639e-05 2.51368e-06 1.7778e-09)
(-7.63397e-05 2.5113e-06 1.79081e-09)
(-7.69242e-05 2.50891e-06 1.804e-09)
(-7.75177e-05 2.50651e-06 1.8174e-09)
(-7.81205e-05 2.5041e-06 1.83099e-09)
(-7.87327e-05 2.50169e-06 1.84479e-09)
(-7.93544e-05 2.49927e-06 1.8588e-09)
(-7.99861e-05 2.49684e-06 1.87303e-09)
(-8.06279e-05 2.49441e-06 1.88747e-09)
(-8.128e-05 2.49198e-06 1.90214e-09)
(-8.19426e-05 2.48954e-06 1.91703e-09)
(-8.26162e-05 2.4871e-06 1.93217e-09)
(-8.33008e-05 2.48465e-06 1.94754e-09)
(-8.39969e-05 2.48221e-06 1.96316e-09)
(-8.47046e-05 2.47976e-06 1.97903e-09)
(-4.29849e-07 3.15582e-06 -0.000586752)
(-7.30928e-05 2.5194e-06 1.63593e-09)
(-7.36223e-05 2.51696e-06 1.64739e-09)
(-7.41593e-05 2.5145e-06 1.65902e-09)
(-7.47043e-05 2.51202e-06 1.67081e-09)
(-7.52573e-05 2.50954e-06 1.68277e-09)
(-7.58187e-05 2.50705e-06 1.69491e-09)
(-7.63883e-05 2.50454e-06 1.70722e-09)
(-7.69666e-05 2.50202e-06 1.71971e-09)
(-7.75536e-05 2.4995e-06 1.73238e-09)
(-7.81497e-05 2.49696e-06 1.74524e-09)
(-7.87549e-05 2.49441e-06 1.7583e-09)
(-7.93696e-05 2.49186e-06 1.77155e-09)
(-7.9994e-05 2.48929e-06 1.785e-09)
(-8.06281e-05 2.48672e-06 1.79866e-09)
(-8.12725e-05 2.48413e-06 1.81253e-09)
(-8.19271e-05 2.48154e-06 1.82662e-09)
(-8.25924e-05 2.47895e-06 1.84092e-09)
(-8.32684e-05 2.47634e-06 1.85545e-09)
(-8.39556e-05 2.47374e-06 1.87022e-09)
(-8.46542e-05 2.47112e-06 1.88522e-09)
(-8.53646e-05 2.4685e-06 1.90046e-09)
(-4.29523e-07 3.15295e-06 -0.000586215)
(-7.37126e-05 2.51028e-06 1.56833e-09)
(-7.42445e-05 2.50769e-06 1.57932e-09)
(-7.47842e-05 2.50509e-06 1.59047e-09)
(-7.53317e-05 2.50247e-06 1.60178e-09)
(-7.58874e-05 2.49984e-06 1.61324e-09)
(-7.64512e-05 2.49719e-06 1.62488e-09)
(-7.70234e-05 2.49453e-06 1.63668e-09)
(-7.76043e-05 2.49186e-06 1.64865e-09)
(-7.8194e-05 2.48917e-06 1.66081e-09)
(-7.87926e-05 2.48646e-06 1.67314e-09)
(-7.94005e-05 2.48375e-06 1.68565e-09)
(-8.00179e-05 2.48102e-06 1.69836e-09)
(-8.06448e-05 2.47828e-06 1.71126e-09)
(-8.12817e-05 2.47552e-06 1.72435e-09)
(-8.19286e-05 2.47275e-06 1.73765e-09)
(-8.25859e-05 2.46997e-06 1.75115e-09)
(-8.32538e-05 2.46718e-06 1.76487e-09)
(-8.39326e-05 2.46438e-06 1.7788e-09)
(-8.46224e-05 2.46157e-06 1.79295e-09)
(-8.53238e-05 2.45874e-06 1.80733e-09)
(-8.60367e-05 2.45591e-06 1.82195e-09)
(-4.29197e-07 3.15009e-06 -0.000585677)
(-7.43452e-05 2.50114e-06 1.50074e-09)
(-7.48799e-05 2.49841e-06 1.51126e-09)
(-7.54222e-05 2.49566e-06 1.52192e-09)
(-7.59725e-05 2.4929e-06 1.53274e-09)
(-7.65309e-05 2.49012e-06 1.54372e-09)
(-7.70975e-05 2.48732e-06 1.55485e-09)
(-7.76725e-05 2.4845e-06 1.56615e-09)
(-7.82562e-05 2.48167e-06 1.57761e-09)
(-7.88486e-05 2.47882e-06 1.58923e-09)
(-7.94502e-05 2.47595e-06 1.60103e-09)
(-8.00609e-05 2.47306e-06 1.61301e-09)
(-8.0681e-05 2.47016e-06 1.62517e-09)
(-8.13109e-05 2.46724e-06 1.63751e-09)
(-8.19505e-05 2.4643e-06 1.65005e-09)
(-8.26004e-05 2.46135e-06 1.66277e-09)
(-8.32606e-05 2.45838e-06 1.67569e-09)
(-8.39314e-05 2.45539e-06 1.68882e-09)
(-8.46131e-05 2.45239e-06 1.70215e-09)
(-8.53059e-05 2.44937e-06 1.7157e-09)
(-8.60101e-05 2.44634e-06 1.72946e-09)
(-8.6726e-05 2.4433e-06 1.74344e-09)
(-4.28871e-07 3.14723e-06 -0.000585141)
(-7.49907e-05 2.49197e-06 1.43315e-09)
(-7.55282e-05 2.48911e-06 1.4432e-09)
(-7.60735e-05 2.48622e-06 1.45339e-09)
(-7.66267e-05 2.48331e-06 1.46372e-09)
(-7.71879e-05 2.48038e-06 1.4742e-09)
(-7.77576e-05 2.47743e-06 1.48483e-09)
(-7.83355e-05 2.47445e-06 1.49562e-09)
(-7.89222e-05 2.47146e-06 1.50656e-09)
(-7.95177e-05 2.46845e-06 1.51767e-09)
(-8.01222e-05 2.46541e-06 1.52894e-09)
(-8.0736e-05 2.46235e-06 1.54038e-09)
(-8.13592e-05 2.45928e-06 1.55199e-09)
(-8.19921e-05 2.45618e-06 1.56378e-09)
(-8.26349e-05 2.45306e-06 1.57575e-09)
(-8.32879e-05 2.44992e-06 1.5879e-09)
(-8.39511e-05 2.44676e-06 1.60024e-09)
(-8.46252e-05 2.44358e-06 1.61278e-09)
(-8.53099e-05 2.44037e-06 1.62551e-09)
(-8.60059e-05 2.43715e-06 1.63845e-09)
(-8.67133e-05 2.43391e-06 1.65159e-09)
(-8.74324e-05 2.43065e-06 1.66495e-09)
(-4.28546e-07 3.14438e-06 -0.000584604)
(-7.5649e-05 2.48279e-06 1.36557e-09)
(-7.61897e-05 2.47978e-06 1.37515e-09)
(-7.67379e-05 2.47675e-06 1.38485e-09)
(-7.72943e-05 2.4737e-06 1.3947e-09)
(-7.78587e-05 2.47062e-06 1.40469e-09)
(-7.84314e-05 2.46751e-06 1.41482e-09)
(-7.90126e-05 2.46438e-06 1.4251e-09)
(-7.96024e-05 2.46123e-06 1.43553e-09)
(-8.02011e-05 2.45805e-06 1.44611e-09)
(-8.08089e-05 2.45485e-06 1.45685e-09)
(-8.14259e-05 2.45162e-06 1.46775e-09)
(-8.20524e-05 2.44837e-06 1.47882e-09)
(-8.26887e-05 2.44509e-06 1.49005e-09)
(-8.33347e-05 2.44179e-06 1.50146e-09)
(-8.3991e-05 2.43846e-06 1.51304e-09)
(-8.46578e-05 2.43511e-06 1.5248e-09)
(-8.5335e-05 2.43173e-06 1.53675e-09)
(-8.60233e-05 2.42833e-06 1.54888e-09)
(-8.67227e-05 2.4249e-06 1.56121e-09)
(-8.74335e-05 2.42145e-06 1.57373e-09)
(-8.81562e-05 2.41797e-06 1.58646e-09)
(-4.2822e-07 3.14152e-06 -0.000584068)
(-7.63084e-05 2.47436e-06 1.2972e-09)
(-7.68522e-05 2.47122e-06 1.30629e-09)
(-7.74039e-05 2.46804e-06 1.31551e-09)
(-7.79635e-05 2.46484e-06 1.32486e-09)
(-7.85312e-05 2.46161e-06 1.33435e-09)
(-7.91073e-05 2.45835e-06 1.34397e-09)
(-7.96918e-05 2.45507e-06 1.35372e-09)
(-8.02851e-05 2.45175e-06 1.36363e-09)
(-8.08872e-05 2.44841e-06 1.37368e-09)
(-8.14984e-05 2.44504e-06 1.38414e-09)
(-8.21189e-05 2.44164e-06 1.3945e-09)
(-8.27489e-05 2.43822e-06 1.40501e-09)
(-8.33885e-05 2.43476e-06 1.41568e-09)
(-8.40383e-05 2.43128e-06 1.42651e-09)
(-8.46981e-05 2.42776e-06 1.43751e-09)
(-8.53684e-05 2.42422e-06 1.44868e-09)
(-8.60494e-05 2.42065e-06 1.46003e-09)
(-8.67412e-05 2.41704e-06 1.47156e-09)
(-8.74444e-05 2.41341e-06 1.48326e-09)
(-8.81589e-05 2.40975e-06 1.49516e-09)
(-8.88852e-05 2.40606e-06 1.50725e-09)
(-4.27713e-07 3.13868e-06 -0.000583532)
(-7.65688e-05 2.49123e-06 1.2611e-09)
(-7.7113e-05 2.48813e-06 1.26993e-09)
(-7.7665e-05 2.485e-06 1.27888e-09)
(-7.82251e-05 2.48185e-06 1.28796e-09)
(-7.87932e-05 2.47867e-06 1.29717e-09)
(-7.93696e-05 2.47546e-06 1.30651e-09)
(-7.99545e-05 2.47222e-06 1.31599e-09)
(-8.05481e-05 2.46895e-06 1.3256e-09)
(-8.11505e-05 2.46566e-06 1.33536e-09)
(-8.17621e-05 2.46234e-06 1.34526e-09)
(-8.23829e-05 2.45898e-06 1.35531e-09)
(-8.30132e-05 2.4556e-06 1.36551e-09)
(-8.36532e-05 2.45219e-06 1.37586e-09)
(-8.43031e-05 2.44875e-06 1.38638e-09)
(-8.49632e-05 2.44528e-06 1.39705e-09)
(-8.56337e-05 2.44178e-06 1.40789e-09)
(-8.63148e-05 2.43824e-06 1.4189e-09)
(-8.70069e-05 2.43468e-06 1.43009e-09)
(-8.77101e-05 2.43109e-06 1.44145e-09)
(-8.84247e-05 2.42747e-06 1.45299e-09)
(-8.91512e-05 2.42381e-06 1.46473e-09)
(-4.27625e-07 3.13582e-06 -0.000582988)
(-7.6821e-05 2.50881e-06 1.22564e-09)
(-7.73654e-05 2.50578e-06 1.23421e-09)
(-7.79176e-05 2.50274e-06 1.24291e-09)
(-7.84777e-05 2.49966e-06 1.25172e-09)
(-7.90459e-05 2.49655e-06 1.26067e-09)
(-7.96223e-05 2.49342e-06 1.26975e-09)
(-8.02073e-05 2.49026e-06 1.27895e-09)
(-8.08008e-05 2.48707e-06 1.28829e-09)
(-8.14033e-05 2.48386e-06 1.29777e-09)
(-8.20147e-05 2.48061e-06 1.30738e-09)
(-8.26355e-05 2.47734e-06 1.31714e-09)
(-8.32657e-05 2.47404e-06 1.32705e-09)
(-8.39055e-05 2.47071e-06 1.33711e-09)
(-8.45553e-05 2.46735e-06 1.34732e-09)
(-8.52151e-05 2.46395e-06 1.35768e-09)
(-8.58854e-05 2.46053e-06 1.36822e-09)
(-8.65662e-05 2.45708e-06 1.37891e-09)
(-8.7258e-05 2.4536e-06 1.38978e-09)
(-8.79608e-05 2.45009e-06 1.40081e-09)
(-8.86752e-05 2.44655e-06 1.41202e-09)
(-8.94011e-05 2.44298e-06 1.42341e-09)
(-4.2792e-07 3.13291e-06 -0.000582443)
(-7.70785e-05 2.5268e-06 1.19028e-09)
(-7.76232e-05 2.52386e-06 1.1986e-09)
(-7.81755e-05 2.52089e-06 1.20704e-09)
(-7.87358e-05 2.5179e-06 1.2156e-09)
(-7.93041e-05 2.51488e-06 1.22429e-09)
(-7.98807e-05 2.51183e-06 1.23309e-09)
(-8.04657e-05 2.50875e-06 1.24203e-09)
(-8.10594e-05 2.50565e-06 1.25109e-09)
(-8.16619e-05 2.50252e-06 1.26029e-09)
(-8.22734e-05 2.49936e-06 1.26962e-09)
(-8.28941e-05 2.49617e-06 1.27909e-09)
(-8.35242e-05 2.49296e-06 1.28871e-09)
(-8.41641e-05 2.48971e-06 1.29847e-09)
(-8.48137e-05 2.48644e-06 1.30838e-09)
(-8.54735e-05 2.48314e-06 1.31844e-09)
(-8.61435e-05 2.4798e-06 1.32866e-09)
(-8.68243e-05 2.47644e-06 1.33904e-09)
(-8.75157e-05 2.47305e-06 1.34958e-09)
(-8.82184e-05 2.46963e-06 1.36029e-09)
(-8.89323e-05 2.46618e-06 1.37117e-09)
(-8.9658e-05 2.4627e-06 1.38223e-09)
(-4.28157e-07 3.13001e-06 -0.0005819)
(-7.73413e-05 2.54521e-06 1.15502e-09)
(-7.78862e-05 2.54236e-06 1.16309e-09)
(-7.84389e-05 2.53948e-06 1.17128e-09)
(-7.89994e-05 2.53657e-06 1.17958e-09)
(-7.95679e-05 2.53364e-06 1.188e-09)
(-8.01447e-05 2.53068e-06 1.19654e-09)
(-8.073e-05 2.52769e-06 1.20521e-09)
(-8.13238e-05 2.52468e-06 1.214e-09)
(-8.19264e-05 2.52164e-06 1.22292e-09)
(-8.2538e-05 2.51857e-06 1.23197e-09)
(-8.31589e-05 2.51547e-06 1.24115e-09)
(-8.37891e-05 2.51235e-06 1.25048e-09)
(-8.44289e-05 2.5092e-06 1.25994e-09)
(-8.50786e-05 2.50602e-06 1.26955e-09)
(-8.57384e-05 2.50281e-06 1.27931e-09)
(-8.64084e-05 2.49957e-06 1.28922e-09)
(-8.7089e-05 2.49631e-06 1.29929e-09)
(-8.77804e-05 2.49301e-06 1.30951e-09)
(-8.84829e-05 2.48969e-06 1.31989e-09)
(-8.91967e-05 2.48634e-06 1.33044e-09)
(-8.9922e-05 2.48295e-06 1.34116e-09)
(-4.28394e-07 3.12711e-06 -0.000581356)
(-7.76094e-05 2.56403e-06 1.11986e-09)
(-7.81546e-05 2.56126e-06 1.12768e-09)
(-7.87076e-05 2.55848e-06 1.13561e-09)
(-7.92685e-05 2.55566e-06 1.14365e-09)
(-7.98374e-05 2.55282e-06 1.15182e-09)
(-8.04144e-05 2.54996e-06 1.1601e-09)
(-8.1e-05 2.54707e-06 1.16849e-09)
(-8.15941e-05 2.54415e-06 1.17701e-09)
(-8.21969e-05 2.54121e-06 1.18565e-09)
(-8.28087e-05 2.53824e-06 1.19442e-09)
(-8.34298e-05 2.53524e-06 1.20332e-09)
(-8.40602e-05 2.53221e-06 1.21235e-09)
(-8.47001e-05 2.52916e-06 1.22152e-09)
(-8.535e-05 2.52608e-06 1.23083e-09)
(-8.60098e-05 2.52298e-06 1.24029e-09)
(-8.66799e-05 2.51984e-06 1.24989e-09)
(-8.73605e-05 2.51668e-06 1.25965e-09)
(-8.8052e-05 2.51349e-06 1.26955e-09)
(-8.87544e-05 2.51027e-06 1.27961e-09)
(-8.94681e-05 2.50702e-06 1.28983e-09)
(-9.01934e-05 2.50375e-06 1.30022e-09)
(-4.28631e-07 3.12421e-06 -0.000580813)
(-7.78827e-05 2.58325e-06 1.08479e-09)
(-7.84285e-05 2.58058e-06 1.09237e-09)
(-7.89818e-05 2.57789e-06 1.10004e-09)
(-7.95431e-05 2.57518e-06 1.10783e-09)
(-8.01123e-05 2.57244e-06 1.11573e-09)
(-8.06899e-05 2.56967e-06 1.12375e-09)
(-8.12757e-05 2.56688e-06 1.13188e-09)
(-8.18702e-05 2.56407e-06 1.14012e-09)
(-8.24733e-05 2.56123e-06 1.14849e-09)
(-8.30855e-05 2.55836e-06 1.15698e-09)
(-8.37068e-05 2.55547e-06 1.16559e-09)
(-8.43374e-05 2.55255e-06 1.17434e-09)
(-8.49777e-05 2.54961e-06 1.18321e-09)
(-8.56277e-05 2.54663e-06 1.19223e-09)
(-8.62878e-05 2.54364e-06 1.20138e-09)
(-8.6958e-05 2.54061e-06 1.21067e-09)
(-8.76389e-05 2.53756e-06 1.22012e-09)
(-8.83303e-05 2.53448e-06 1.22971e-09)
(-8.90329e-05 2.53137e-06 1.23945e-09)
(-8.97466e-05 2.52824e-06 1.24934e-09)
(-9.0472e-05 2.52508e-06 1.25939e-09)
(-4.28867e-07 3.12131e-06 -0.000580271)
(-7.81613e-05 2.60288e-06 1.04983e-09)
(-7.87074e-05 2.60031e-06 1.05715e-09)
(-7.92614e-05 2.59772e-06 1.06457e-09)
(-7.98231e-05 2.59511e-06 1.0721e-09)
(-8.03929e-05 2.59248e-06 1.07975e-09)
(-8.09708e-05 2.58982e-06 1.0875e-09)
(-8.15572e-05 2.58714e-06 1.09536e-09)
(-8.2152e-05 2.58443e-06 1.10334e-09)
(-8.27557e-05 2.5817e-06 1.11143e-09)
(-8.33682e-05 2.57894e-06 1.11964e-09)
(-8.39899e-05 2.57616e-06 1.12797e-09)
(-8.46209e-05 2.57335e-06 1.13643e-09)
(-8.52615e-05 2.57052e-06 1.14501e-09)
(-8.59119e-05 2.56767e-06 1.15373e-09)
(-8.65722e-05 2.56478e-06 1.16258e-09)
(-8.72428e-05 2.56187e-06 1.17157e-09)
(-8.79238e-05 2.55894e-06 1.18071e-09)
(-8.86155e-05 2.55598e-06 1.18998e-09)
(-8.93182e-05 2.55299e-06 1.1994e-09)
(-9.00322e-05 2.54998e-06 1.20897e-09)
(-9.07576e-05 2.54694e-06 1.21869e-09)
(-4.29103e-07 3.11842e-06 -0.000579729)
(-7.8445e-05 2.6229e-06 1.01495e-09)
(-7.89918e-05 2.62045e-06 1.02203e-09)
(-7.95463e-05 2.61797e-06 1.0292e-09)
(-8.01086e-05 2.61546e-06 1.03648e-09)
(-8.0679e-05 2.61294e-06 1.04387e-09)
(-8.12575e-05 2.61039e-06 1.05136e-09)
(-8.18443e-05 2.60782e-06 1.05895e-09)
(-8.24398e-05 2.60523e-06 1.06666e-09)
(-8.30438e-05 2.60261e-06 1.07448e-09)
(-8.36569e-05 2.59997e-06 1.08241e-09)
(-8.42791e-05 2.59731e-06 1.09046e-09)
(-8.49106e-05 2.59462e-06 1.09863e-09)
(-8.55516e-05 2.59191e-06 1.10693e-09)
(-8.62023e-05 2.58918e-06 1.11535e-09)
(-8.68631e-05 2.58642e-06 1.1239e-09)
(-8.75341e-05 2.58363e-06 1.13258e-09)
(-8.82154e-05 2.58082e-06 1.14141e-09)
(-8.89075e-05 2.57799e-06 1.15037e-09)
(-8.96106e-05 2.57513e-06 1.15947e-09)
(-9.03248e-05 2.57224e-06 1.16871e-09)
(-9.10505e-05 2.56933e-06 1.1781e-09)
(-4.29339e-07 3.11553e-06 -0.000579187)
(-7.8734e-05 2.64333e-06 9.80177e-10)
(-7.92814e-05 2.64099e-06 9.87006e-10)
(-7.98366e-05 2.63862e-06 9.93931e-10)
(-8.03996e-05 2.63623e-06 1.00095e-09)
(-8.09705e-05 2.63382e-06 1.00809e-09)
(-8.15497e-05 2.63139e-06 1.01532e-09)
(-8.21372e-05 2.62894e-06 1.02265e-09)
(-8.27332e-05 2.62647e-06 1.03008e-09)
(-8.33379e-05 2.62397e-06 1.03763e-09)
(-8.39515e-05 2.62146e-06 1.04529e-09)
(-8.45743e-05 2.61892e-06 1.05306e-09)
(-8.52064e-05 2.61635e-06 1.06094e-09)
(-8.58479e-05 2.61377e-06 1.06895e-09)
(-8.64992e-05 2.61116e-06 1.07707e-09)
(-8.71605e-05 2.60853e-06 1.08533e-09)
(-8.78319e-05 2.60588e-06 1.0937e-09)
(-8.85138e-05 2.6032e-06 1.10222e-09)
(-8.92063e-05 2.6005e-06 1.11088e-09)
(-8.99097e-05 2.59777e-06 1.11966e-09)
(-9.06244e-05 2.59502e-06 1.12858e-09)
(-9.13504e-05 2.59225e-06 1.13764e-09)
(-4.29574e-07 3.11264e-06 -0.000578646)
(-7.9028e-05 2.66415e-06 9.45499e-10)
(-7.95763e-05 2.66193e-06 9.52083e-10)
(-8.01322e-05 2.65968e-06 9.58758e-10)
(-8.06959e-05 2.65741e-06 9.65529e-10)
(-8.12677e-05 2.65513e-06 9.72404e-10)
(-8.18475e-05 2.65282e-06 9.7938e-10)
(-8.24358e-05 2.65049e-06 9.86446e-10)
(-8.30324e-05 2.64814e-06 9.93614e-10)
(-8.36378e-05 2.64578e-06 1.00089e-09)
(-8.42522e-05 2.64339e-06 1.00827e-09)
(-8.48755e-05 2.64098e-06 1.01576e-09)
(-8.55082e-05 2.63855e-06 1.02336e-09)
(-8.61505e-05 2.63609e-06 1.03108e-09)
(-8.68024e-05 2.63362e-06 1.03891e-09)
(-8.74642e-05 2.63113e-06 1.04687e-09)
(-8.81363e-05 2.62861e-06 1.05494e-09)
(-8.88187e-05 2.62607e-06 1.06315e-09)
(-8.95119e-05 2.62351e-06 1.0715e-09)
(-9.02158e-05 2.62093e-06 1.07997e-09)
(-9.09309e-05 2.61832e-06 1.08856e-09)
(-9.16576e-05 2.6157e-06 1.0973e-09)
(-4.29808e-07 3.10975e-06 -0.000578106)
(-7.93273e-05 2.68537e-06 9.10917e-10)
(-7.98764e-05 2.68327e-06 9.17256e-10)
(-8.04331e-05 2.68114e-06 9.23685e-10)
(-8.09977e-05 2.679e-06 9.30204e-10)
(-8.15702e-05 2.67684e-06 9.36822e-10)
(-8.21509e-05 2.67467e-06 9.43542e-10)
(-8.27398e-05 2.67247e-06 9.50345e-10)
(-8.33374e-05 2.67025e-06 9.57247e-10)
(-8.39436e-05 2.66802e-06 9.6425e-10)
(-8.45586e-05 2.66576e-06 9.71357e-10)
(-8.51828e-05 2.66349e-06 9.78569e-10)
(-8.58163e-05 2.6612e-06 9.85888e-10)
(-8.64592e-05 2.65888e-06 9.93319e-10)
(-8.71119e-05 2.65655e-06 1.00086e-09)
(-8.77744e-05 2.6542e-06 1.00852e-09)
(-8.84471e-05 2.65183e-06 1.0163e-09)
(-8.91303e-05 2.64943e-06 1.02419e-09)
(-8.9824e-05 2.64702e-06 1.03224e-09)
(-9.05287e-05 2.64459e-06 1.04039e-09)
(-9.12445e-05 2.64214e-06 1.04867e-09)
(-9.19716e-05 2.63966e-06 1.05708e-09)
(-4.30041e-07 3.10687e-06 -0.000577565)
(-7.96317e-05 2.70698e-06 8.76432e-10)
(-8.01817e-05 2.705e-06 8.82528e-10)
(-8.07393e-05 2.70301e-06 8.88709e-10)
(-8.13048e-05 2.701e-06 8.94978e-10)
(-8.18782e-05 2.69897e-06 9.01341e-10)
(-8.24597e-05 2.69693e-06 9.07805e-10)
(-8.30496e-05 2.69487e-06 9.14347e-10)
(-8.3648e-05 2.69279e-06 9.20984e-10)
(-8.42551e-05 2.69069e-06 9.27718e-10)
(-8.48711e-05 2.68858e-06 9.34552e-10)
(-8.54961e-05 2.68645e-06 9.41486e-10)
(-8.61304e-05 2.6843e-06 9.48525e-10)
(-8.67741e-05 2.68213e-06 9.55669e-10)
(-8.74276e-05 2.67995e-06 9.62922e-10)
(-8.8091e-05 2.67774e-06 9.70286e-10)
(-8.87646e-05 2.67552e-06 9.77763e-10)
(-8.94484e-05 2.67329e-06 9.85356e-10)
(-9.0143e-05 2.67103e-06 9.93087e-10)
(-9.08484e-05 2.66875e-06 1.00093e-09)
(-9.15649e-05 2.66646e-06 1.00889e-09)
(-9.22929e-05 2.66415e-06 1.01697e-09)
(-4.30273e-07 3.10399e-06 -0.000577025)
(-7.99413e-05 2.72898e-06 8.42042e-10)
(-8.04922e-05 2.72714e-06 8.47896e-10)
(-8.10509e-05 2.72528e-06 8.53832e-10)
(-8.16173e-05 2.7234e-06 8.59851e-10)
(-8.21917e-05 2.72152e-06 8.6596e-10)
(-8.27742e-05 2.71961e-06 8.7217e-10)
(-8.33651e-05 2.71769e-06 8.78451e-10)
(-8.39644e-05 2.71576e-06 8.84824e-10)
(-8.45725e-05 2.71381e-06 8.9129e-10)
(-8.51893e-05 2.71184e-06 8.97851e-10)
(-8.58153e-05 2.70986e-06 9.0451e-10)
(-8.64506e-05 2.70786e-06 9.11268e-10)
(-8.70953e-05 2.70585e-06 9.18128e-10)
(-8.77497e-05 2.70382e-06 9.25092e-10)
(-8.8414e-05 2.70177e-06 9.32162e-10)
(-8.90885e-05 2.69971e-06 9.39341e-10)
(-8.97733e-05 2.69763e-06 9.46632e-10)
(-9.04687e-05 2.69553e-06 9.54049e-10)
(-9.1175e-05 2.69342e-06 9.61586e-10)
(-9.18924e-05 2.6913e-06 9.69228e-10)
(-9.26212e-05 2.68915e-06 9.76991e-10)
(-4.30505e-07 3.10111e-06 -0.000576486)
(-8.02302e-05 2.74946e-06 8.07612e-10)
(-8.0782e-05 2.74773e-06 8.13223e-10)
(-8.13412e-05 2.74598e-06 8.18912e-10)
(-8.19084e-05 2.74423e-06 8.24681e-10)
(-8.24834e-05 2.74245e-06 8.30532e-10)
(-8.30667e-05 2.74067e-06 8.36467e-10)
(-8.36582e-05 2.73887e-06 8.42487e-10)
(-8.42582e-05 2.73705e-06 8.48594e-10)
(-8.48669e-05 2.73522e-06 8.54791e-10)
(-8.54845e-05 2.73338e-06 8.61086e-10)
(-8.6111e-05 2.73152e-06 8.67478e-10)
(-8.67468e-05 2.72965e-06 8.73954e-10)
(-8.73922e-05 2.72776e-06 8.80528e-10)
(-8.80471e-05 2.72586e-06 8.87202e-10)
(-8.8712e-05 2.72394e-06 8.93977e-10)
(-8.9387e-05 2.72201e-06 9.00857e-10)
(-9.00724e-05 2.72006e-06 9.07844e-10)
(-9.07683e-05 2.7181e-06 9.14939e-10)
(-9.14751e-05 2.71613e-06 9.22147e-10)
(-9.21929e-05 2.71414e-06 9.29469e-10)
(-9.29222e-05 2.71213e-06 9.36908e-10)
(-4.30765e-07 3.09823e-06 -0.000575947)
(-8.74349e-05 3.18487e-06 2.72612e-10)
(-8.80361e-05 3.1861e-06 2.74488e-10)
(-8.86456e-05 3.18735e-06 2.76391e-10)
(-8.92637e-05 3.18864e-06 2.78321e-10)
(-8.98904e-05 3.18995e-06 2.80278e-10)
(-9.0526e-05 3.19129e-06 2.82262e-10)
(-9.11706e-05 3.19266e-06 2.84275e-10)
(-9.18245e-05 3.19406e-06 2.86316e-10)
(-9.24879e-05 3.1955e-06 2.88387e-10)
(-9.31608e-05 3.19696e-06 2.90488e-10)
(-9.38437e-05 3.19846e-06 2.92621e-10)
(-9.45367e-05 3.19999e-06 2.94784e-10)
(-9.52399e-05 3.20156e-06 2.9698e-10)
(-9.59537e-05 3.20317e-06 2.99209e-10)
(-9.66783e-05 3.20481e-06 3.01471e-10)
(-9.74139e-05 3.20649e-06 3.03768e-10)
(-9.81608e-05 3.20821e-06 3.061e-10)
(-9.89192e-05 3.20998e-06 3.08469e-10)
(-9.96895e-05 3.21178e-06 3.10874e-10)
(-0.000100472 3.21363e-06 3.13317e-10)
(-0.000101266 3.21553e-06 3.15799e-10)
(-4.39348e-07 3.09653e-06 -0.000575552)
)
;

boundaryField
{
    inlet
    {
        type            calculated;
        value           uniform (0 0 0);
    }
    outlet2
    {
        type            calculated;
        value           uniform (0 0 0);
    }
    outlet1
    {
        type            calculated;
        value           uniform (0 0 0);
    }
    wall
    {
        type            calculated;
        value           uniform (0 0 0);
    }
    symmetryBottom
    {
        type            symmetry;
    }
    symmetryZ0
    {
        type            symmetry;
    }
    symmetryZ05
    {
        type            symmetry;
    }
}


// ************************************************************************* //
