/*--------------------------------*- C++ -*----------------------------------*\
| =========                 |                                                 |
| \\      /  F ield         | OpenFOAM: The Open Source CFD Toolbox           |
|  \\    /   O peration     | Version:  2412                                  |
|   \\  /    A nd           | Website:  www.openfoam.com                      |
|    \\/     M anipulation  |                                                 |
\*---------------------------------------------------------------------------*/
FoamFile
{
    version     2.0;
    format      ascii;
    arch        "LSB;label=32;scalar=64";
    class       volVectorField;
    location    "9.96134e-07";
    object      U;
}
// * * * * * * * * * * * * * * * * * * * * * * * * * * * * * * * * * * * * * //

dimensions      [0 0 0 0 0 0 0];

internalField   nonuniform List<vector> 
625
(
(2635.88 -0.0132991 0.0250469)
(2633.87 -0.0184853 0.031928)
(2633.87 -0.0185054 0.00035261)
(2635.88 -2.03875 0.0250496)
(2633.87 -2.11213 0.0319309)
(2633.87 -2.11217 -5.02536e-05)
(2635.88 -2.03236 0.0250499)
(2633.87 -2.10567 0.0319309)
(2633.87 -2.1057 -4.28343e-05)
(2635.88 -2.03239 0.0250499)
(2633.87 -2.1057 0.0319309)
(2633.87 -2.10572 -4.28598e-05)
(2635.88 -2.03239 0.0250499)
(2633.87 -2.1057 0.0319309)
(2633.87 -2.10572 -4.28598e-05)
(2635.88 -2.03239 0.0250499)
(2633.87 -2.1057 0.0319309)
(2633.87 -2.10572 -4.28598e-05)
(2635.88 -2.03239 0.0250499)
(2633.87 -2.1057 0.0319309)
(2633.87 -2.10572 -4.28598e-05)
(2635.88 -2.03239 0.0250499)
(2633.87 -2.1057 0.0319309)
(2633.87 -2.10572 -4.28598e-05)
(2635.88 -2.03239 0.0250499)
(2633.87 -2.1057 0.0319309)
(2633.87 -2.10572 -4.28598e-05)
(2635.88 -2.03239 0.0250499)
(2633.87 -2.1057 0.0319309)
(2633.87 -2.10572 -4.28598e-05)
(2635.88 -2.03239 0.0250499)
(2633.87 -2.1057 0.0319309)
(2633.87 -2.10572 -4.28598e-05)
(2635.88 -2.03239 0.0250499)
(2633.87 -2.1057 0.0319309)
(2633.87 -2.10572 -4.28598e-05)
(2635.88 -2.03239 0.0250499)
(2633.87 -2.1057 0.0319309)
(2633.87 -2.10572 -4.28598e-05)
(2635.88 -2.03239 0.0250499)
(2633.87 -2.1057 0.0319309)
(2633.87 -2.10572 -4.28598e-05)
(2635.88 -2.03239 0.0250499)
(2633.87 -2.1057 0.0319309)
(2633.87 -2.10572 -4.28598e-05)
(2635.88 -2.03239 0.0250499)
(2633.87 -2.1057 0.0319309)
(2633.87 -2.10572 -4.28598e-05)
(2635.88 -2.03239 0.0250499)
(2633.87 -2.1057 0.0319309)
(2633.87 -2.10572 -4.28598e-05)
(2635.88 -2.03239 0.0250499)
(2633.87 -2.1057 0.0319309)
(2633.87 -2.10572 -4.28598e-05)
(2635.88 -2.03239 0.0250499)
(2633.87 -2.1057 0.0319309)
(2633.87 -2.10572 -4.28598e-05)
(2635.88 -2.03239 0.0250499)
(2633.87 -2.1057 0.0319309)
(2633.87 -2.10572 -4.28598e-05)
(2635.88 -2.03239 0.0250499)
(2633.87 -2.1057 0.0319309)
(2633.87 -2.10572 -4.28598e-05)
(2635.88 -2.03239 0.0250499)
(2633.87 -2.1057 0.0319309)
(2633.87 -2.10572 -4.28598e-05)
(2635.88 -2.03239 0.0250499)
(2633.87 -2.1057 0.0319309)
(2633.87 -2.10572 -4.26121e-05)
(2635.88 -2.03238 0.02505)
(2633.87 -2.10572 0.0319309)
(2633.87 -2.10591 -0.000162514)
(2635.88 -2.03108 0.025068)
(2633.87 -2.09947 0.0319481)
(2633.87 -2.09966 0.0317246)
(2624.32 0.39825 0.0342831)
(2624.23 0.404321 0.0343045)
(2624.13 0.410531 0.0343263)
(2624.04 0.416882 0.0343485)
(2623.94 0.423381 0.034371)
(2623.84 0.43003 0.034394)
(2623.74 0.436835 0.0344173)
(2623.64 0.443801 0.0344411)
(2623.53 0.450933 0.0344653)
(2623.42 0.458236 0.0344899)
(2623.32 0.465716 0.0345149)
(2623.2 0.473378 0.0345404)
(2623.09 0.481228 0.0345664)
(2622.97 0.489272 0.0345928)
(2622.86 0.497517 0.0346197)
(2622.74 0.50597 0.0346472)
(2622.61 0.514638 0.0346751)
(2622.49 0.523527 0.0347036)
(2622.36 0.532646 0.0347326)
(2622.23 0.542002 0.0347622)
(2622.09 0.551603 0.0347924)
(2622.11 0.5544 0.00253846)
(2634.73 -1.97996 0.0319632)
(2634.73 -1.9925 0.031964)
(2634.74 -2.00519 0.0319648)
(2634.74 -2.01805 0.0319656)
(2634.74 -2.03106 0.0319665)
(2634.75 -2.04423 0.0319673)
(2634.75 -2.05758 0.0319682)
(2634.75 -2.07109 0.031969)
(2634.76 -2.08478 0.0319699)
(2634.76 -2.09864 0.0319708)
(2634.76 -2.11269 0.0319716)
(2634.77 -2.12692 0.0319725)
(2634.77 -2.14133 0.0319734)
(2634.77 -2.15593 0.0319743)
(2634.78 -2.17073 0.0319752)
(2634.78 -2.18573 0.0319762)
(2634.79 -2.20093 0.0319771)
(2634.79 -2.21633 0.031978)
(2634.8 -2.23194 0.031979)
(2634.8 -2.24776 0.0319799)
(2634.8 -2.26381 0.0319809)
(2634.82 -2.26383 -0.000283688)
(2634.65 -2.11428 0.0320074)
(2634.66 -2.12887 0.0320087)
(2634.66 -2.14366 0.0320102)
(2634.66 -2.15866 0.0320116)
(2634.66 -2.17387 0.032013)
(2634.66 -2.1893 0.0320145)
(2634.67 -2.20495 0.032016)
(2634.67 -2.22083 0.0320175)
(2634.67 -2.23693 0.032019)
(2634.67 -2.25327 0.0320206)
(2634.68 -2.26986 0.0320222)
(2634.68 -2.28668 0.0320238)
(2634.68 -2.30376 0.0320254)
(2634.68 -2.3211 0.0320271)
(2634.69 -2.3387 0.0320287)
(2634.69 -2.35657 0.0320304)
(2634.69 -2.37471 0.0320322)
(2634.69 -2.39314 0.0320339)
(2634.7 -2.41186 0.0320357)
(2634.7 -2.43087 0.0320375)
(2634.7 -2.45018 0.0320393)
(2634.72 -2.45007 -0.00019522)
(2634.64 -2.11307 0.0320137)
(2634.64 -2.12763 0.0320151)
(2634.64 -2.1424 0.0320166)
(2634.65 -2.15737 0.0320181)
(2634.65 -2.17255 0.0320196)
(2634.65 -2.18794 0.0320211)
(2634.65 -2.20356 0.0320226)
(2634.65 -2.2194 0.0320242)
(2634.66 -2.23547 0.0320257)
(2634.66 -2.25177 0.0320273)
(2634.66 -2.26832 0.032029)
(2634.66 -2.28511 0.0320306)
(2634.67 -2.30214 0.0320323)
(2634.67 -2.31944 0.032034)
(2634.67 -2.337 0.0320357)
(2634.67 -2.35482 0.0320375)
(2634.68 -2.37292 0.0320392)
(2634.68 -2.3913 0.032041)
(2634.68 -2.40996 0.0320429)
(2634.68 -2.42892 0.0320447)
(2634.69 -2.44818 0.0320466)
(2634.7 -2.44807 -0.000191662)
(2634.62 -2.11338 0.0320203)
(2634.63 -2.12795 0.0320217)
(2634.63 -2.14272 0.0320232)
(2634.63 -2.15769 0.0320247)
(2634.63 -2.17288 0.0320263)
(2634.63 -2.18828 0.0320278)
(2634.64 -2.2039 0.0320294)
(2634.64 -2.21975 0.032031)
(2634.64 -2.23582 0.0320327)
(2634.64 -2.25213 0.0320343)
(2634.65 -2.26868 0.032036)
(2634.65 -2.28547 0.0320377)
(2634.65 -2.30252 0.0320394)
(2634.65 -2.31982 0.0320412)
(2634.66 -2.33738 0.0320429)
(2634.66 -2.35521 0.0320448)
(2634.66 -2.37332 0.0320466)
(2634.66 -2.3917 0.0320484)
(2634.67 -2.41038 0.0320503)
(2634.67 -2.42934 0.0320523)
(2634.67 -2.44861 0.0320542)
(2634.69 -2.44849 -0.000188042)
(2634.61 -2.11369 0.0320268)
(2634.61 -2.12826 0.0320283)
(2634.61 -2.14303 0.0320299)
(2634.62 -2.15801 0.0320314)
(2634.62 -2.1732 0.032033)
(2634.62 -2.18861 0.0320346)
(2634.62 -2.20423 0.0320362)
(2634.62 -2.22008 0.0320379)
(2634.63 -2.23616 0.0320396)
(2634.63 -2.25248 0.0320413)
(2634.63 -2.26903 0.032043)
(2634.63 -2.28583 0.0320448)
(2634.63 -2.30288 0.0320465)
(2634.64 -2.32019 0.0320484)
(2634.64 -2.33775 0.0320502)
(2634.64 -2.35559 0.032052)
(2634.64 -2.3737 0.0320539)
(2634.65 -2.39209 0.0320559)
(2634.65 -2.41077 0.0320578)
(2634.65 -2.42974 0.0320598)
(2634.65 -2.44902 0.0320618)
(2634.67 -2.44889 -0.000184419)
(2634.6 -2.11399 0.0320333)
(2634.6 -2.12857 0.0320349)
(2634.6 -2.14334 0.0320365)
(2634.6 -2.15833 0.0320381)
(2634.6 -2.17352 0.0320397)
(2634.61 -2.18893 0.0320414)
(2634.61 -2.20456 0.0320431)
(2634.61 -2.22042 0.0320448)
(2634.61 -2.2365 0.0320465)
(2634.61 -2.25282 0.0320483)
(2634.62 -2.26938 0.03205)
(2634.62 -2.28619 0.0320518)
(2634.62 -2.30324 0.0320537)
(2634.62 -2.32055 0.0320555)
(2634.62 -2.33813 0.0320574)
(2634.63 -2.35597 0.0320593)
(2634.63 -2.37409 0.0320613)
(2634.63 -2.39248 0.0320633)
(2634.63 -2.41117 0.0320653)
(2634.63 -2.43015 0.0320673)
(2634.64 -2.44943 0.0320694)
(2634.65 -2.4493 -0.000180797)
(2634.58 -2.1143 0.0320399)
(2634.58 -2.12888 0.0320415)
(2634.59 -2.14366 0.0320431)
(2634.59 -2.15865 0.0320448)
(2634.59 -2.17384 0.0320465)
(2634.59 -2.18926 0.0320482)
(2634.59 -2.20489 0.0320499)
(2634.59 -2.22075 0.0320517)
(2634.6 -2.23684 0.0320534)
(2634.6 -2.25317 0.0320552)
(2634.6 -2.26973 0.0320571)
(2634.6 -2.28654 0.0320589)
(2634.6 -2.3036 0.0320608)
(2634.61 -2.32092 0.0320627)
(2634.61 -2.3385 0.0320647)
(2634.61 -2.35635 0.0320666)
(2634.61 -2.37447 0.0320686)
(2634.61 -2.39287 0.0320707)
(2634.62 -2.41156 0.0320727)
(2634.62 -2.43055 0.0320748)
(2634.62 -2.44983 0.032077)
(2634.64 -2.4497 -0.000177177)
(2634.57 -2.1146 0.0320464)
(2634.57 -2.12918 0.0320481)
(2634.57 -2.14397 0.0320498)
(2634.57 -2.15896 0.0320515)
(2634.57 -2.17417 0.0320532)
(2634.58 -2.18959 0.032055)
(2634.58 -2.20522 0.0320567)
(2634.58 -2.22109 0.0320585)
(2634.58 -2.23718 0.0320604)
(2634.58 -2.25351 0.0320622)
(2634.58 -2.27008 0.0320641)
(2634.59 -2.2869 0.032066)
(2634.59 -2.30396 0.032068)
(2634.59 -2.32129 0.0320699)
(2634.59 -2.33887 0.0320719)
(2634.59 -2.35672 0.032074)
(2634.6 -2.37485 0.032076)
(2634.6 -2.39326 0.0320781)
(2634.6 -2.41196 0.0320802)
(2634.6 -2.43095 0.0320824)
(2634.6 -2.45024 0.0320846)
(2634.62 -2.45011 -0.000173561)
(2634.55 -2.1149 0.032053)
(2634.55 -2.12948 0.0320547)
(2634.56 -2.14427 0.0320564)
(2634.56 -2.15927 0.0320581)
(2634.56 -2.17448 0.0320599)
(2634.56 -2.1899 0.0320617)
(2634.56 -2.20555 0.0320635)
(2634.56 -2.22141 0.0320654)
(2634.57 -2.23751 0.0320673)
(2634.57 -2.25385 0.0320692)
(2634.57 -2.27042 0.0320711)
(2634.57 -2.28724 0.0320731)
(2634.57 -2.30431 0.0320751)
(2634.57 -2.32164 0.0320771)
(2634.58 -2.33923 0.0320791)
(2634.58 -2.35709 0.0320812)
(2634.58 -2.37523 0.0320833)
(2634.58 -2.39364 0.0320855)
(2634.58 -2.41234 0.0320877)
(2634.59 -2.43134 0.0320899)
(2634.59 -2.45064 0.0320921)
(2634.6 -2.4505 -0.000169524)
(2634.54 -2.11485 0.0320584)
(2634.54 -2.12944 0.0320601)
(2634.54 -2.14423 0.0320619)
(2634.54 -2.15923 0.0320637)
(2634.54 -2.17444 0.0320655)
(2634.55 -2.18986 0.0320673)
(2634.55 -2.20551 0.0320692)
(2634.55 -2.22138 0.0320711)
(2634.55 -2.23748 0.032073)
(2634.55 -2.25382 0.0320749)
(2634.55 -2.27039 0.0320769)
(2634.56 -2.28722 0.0320789)
(2634.56 -2.30429 0.0320809)
(2634.56 -2.32162 0.032083)
(2634.56 -2.33921 0.0320851)
(2634.56 -2.35708 0.0320872)
(2634.56 -2.37521 0.0320894)
(2634.57 -2.39363 0.0320916)
(2634.57 -2.41234 0.0320938)
(2634.57 -2.43134 0.0320961)
(2634.57 -2.45064 0.0320984)
(2634.59 -2.45047 -0.000140397)
(2634.52 -2.1148 0.0320638)
(2634.53 -2.12939 0.0320656)
(2634.53 -2.14418 0.0320674)
(2634.53 -2.15918 0.0320692)
(2634.53 -2.17439 0.0320711)
(2634.53 -2.18982 0.0320729)
(2634.53 -2.20547 0.0320748)
(2634.53 -2.22134 0.0320768)
(2634.54 -2.23744 0.0320787)
(2634.54 -2.25378 0.0320807)
(2634.54 -2.27036 0.0320827)
(2634.54 -2.28719 0.0320848)
(2634.54 -2.30426 0.0320869)
(2634.54 -2.3216 0.032089)
(2634.54 -2.33919 0.0320911)
(2634.55 -2.35705 0.0320933)
(2634.55 -2.37519 0.0320955)
(2634.55 -2.39361 0.0320978)
(2634.55 -2.41232 0.0321)
(2634.55 -2.43133 0.0321023)
(2634.55 -2.45063 0.0321047)
(2634.57 -2.45046 -0.000137934)
(2634.51 -2.11474 0.0320692)
(2634.51 -2.12933 0.032071)
(2634.51 -2.14413 0.0320729)
(2634.51 -2.15913 0.0320748)
(2634.52 -2.17434 0.0320766)
(2634.52 -2.18977 0.0320786)
(2634.52 -2.20542 0.0320805)
(2634.52 -2.2213 0.0320825)
(2634.52 -2.2374 0.0320845)
(2634.52 -2.25374 0.0320865)
(2634.52 -2.27032 0.0320886)
(2634.52 -2.28715 0.0320907)
(2634.53 -2.30423 0.0320928)
(2634.53 -2.32156 0.032095)
(2634.53 -2.33916 0.0320971)
(2634.53 -2.35703 0.0320994)
(2634.53 -2.37517 0.0321016)
(2634.53 -2.39359 0.0321039)
(2634.53 -2.4123 0.0321062)
(2634.54 -2.43131 0.0321086)
(2634.54 -2.45062 0.032111)
(2634.55 -2.45045 -0.000135908)
(2634.5 -2.11468 0.0320747)
(2634.5 -2.12927 0.0320765)
(2634.5 -2.14407 0.0320784)
(2634.5 -2.15907 0.0320803)
(2634.5 -2.17429 0.0320822)
(2634.5 -2.18972 0.0320842)
(2634.5 -2.20537 0.0320862)
(2634.5 -2.22125 0.0320882)
(2634.51 -2.23735 0.0320902)
(2634.51 -2.2537 0.0320923)
(2634.51 -2.27028 0.0320944)
(2634.51 -2.28711 0.0320966)
(2634.51 -2.30419 0.0320987)
(2634.51 -2.32153 0.0321009)
(2634.51 -2.33913 0.0321032)
(2634.51 -2.35699 0.0321054)
(2634.52 -2.37514 0.0321077)
(2634.52 -2.39356 0.0321101)
(2634.52 -2.41228 0.0321124)
(2634.52 -2.43129 0.0321149)
(2634.52 -2.4506 0.0321173)
(2634.54 -2.45043 -0.000133887)
(2634.48 -2.11461 0.0320801)
(2634.48 -2.1292 0.032082)
(2634.48 -2.144 0.0320839)
(2634.48 -2.15901 0.0320859)
(2634.49 -2.17422 0.0320878)
(2634.49 -2.18966 0.0320898)
(2634.49 -2.20531 0.0320919)
(2634.49 -2.22119 0.0320939)
(2634.49 -2.2373 0.032096)
(2634.49 -2.25364 0.0320981)
(2634.49 -2.27023 0.0321003)
(2634.49 -2.28706 0.0321024)
(2634.49 -2.30414 0.0321047)
(2634.5 -2.32148 0.0321069)
(2634.5 -2.33908 0.0321092)
(2634.5 -2.35696 0.0321115)
(2634.5 -2.3751 0.0321138)
(2634.5 -2.39353 0.0321162)
(2634.5 -2.41225 0.0321187)
(2634.5 -2.43126 0.0321211)
(2634.5 -2.45057 0.0321236)
(2634.52 -2.45041 -0.000131871)
(2634.47 -2.11454 0.0320855)
(2634.47 -2.12913 0.0320875)
(2634.47 -2.14393 0.0320894)
(2634.47 -2.15894 0.0320914)
(2634.47 -2.17416 0.0320934)
(2634.47 -2.18959 0.0320955)
(2634.47 -2.20525 0.0320975)
(2634.47 -2.22113 0.0320996)
(2634.48 -2.23724 0.0321018)
(2634.48 -2.25358 0.0321039)
(2634.48 -2.27017 0.0321061)
(2634.48 -2.287 0.0321083)
(2634.48 -2.30409 0.0321106)
(2634.48 -2.32143 0.0321129)
(2634.48 -2.33904 0.0321152)
(2634.48 -2.35691 0.0321176)
(2634.48 -2.37506 0.03212)
(2634.48 -2.39349 0.0321224)
(2634.49 -2.41221 0.0321249)
(2634.49 -2.43122 0.0321274)
(2634.49 -2.45054 0.0321299)
(2634.5 -2.45038 -0.000129861)
(2634.45 -2.11446 0.032091)
(2634.45 -2.12906 0.032093)
(2634.45 -2.14386 0.0320949)
(2634.46 -2.15886 0.032097)
(2634.46 -2.17408 0.032099)
(2634.46 -2.18952 0.0321011)
(2634.46 -2.20518 0.0321032)
(2634.46 -2.22106 0.0321053)
(2634.46 -2.23717 0.0321075)
(2634.46 -2.25352 0.0321097)
(2634.46 -2.27011 0.0321119)
(2634.46 -2.28694 0.0321142)
(2634.46 -2.30403 0.0321165)
(2634.46 -2.32137 0.0321188)
(2634.47 -2.33898 0.0321212)
(2634.47 -2.35686 0.0321236)
(2634.47 -2.37501 0.0321261)
(2634.47 -2.39344 0.0321286)
(2634.47 -2.41216 0.0321311)
(2634.47 -2.43118 0.0321336)
(2634.47 -2.4505 0.0321362)
(2634.49 -2.45034 -0.000127857)
(2634.44 -2.11437 0.0320964)
(2634.44 -2.12897 0.0320984)
(2634.44 -2.14378 0.0321005)
(2634.44 -2.15878 0.0321025)
(2634.44 -2.17401 0.0321046)
(2634.44 -2.18944 0.0321067)
(2634.44 -2.2051 0.0321089)
(2634.44 -2.22099 0.0321111)
(2634.44 -2.2371 0.0321133)
(2634.45 -2.25345 0.0321155)
(2634.45 -2.27004 0.0321178)
(2634.45 -2.28688 0.0321201)
(2634.45 -2.30397 0.0321224)
(2634.45 -2.32131 0.0321248)
(2634.45 -2.33892 0.0321272)
(2634.45 -2.3568 0.0321297)
(2634.45 -2.37495 0.0321322)
(2634.45 -2.39339 0.0321347)
(2634.45 -2.41211 0.0321373)
(2634.45 -2.43113 0.0321399)
(2634.46 -2.45045 0.0321425)
(2634.47 -2.45029 -0.000125859)
(2634.42 -2.11429 0.0321019)
(2634.43 -2.12889 0.0321039)
(2634.43 -2.14369 0.032106)
(2634.43 -2.1587 0.0321081)
(2634.43 -2.17392 0.0321102)
(2634.43 -2.18936 0.0321124)
(2634.43 -2.20502 0.0321146)
(2634.43 -2.22091 0.0321168)
(2634.43 -2.23702 0.032119)
(2634.43 -2.25337 0.0321213)
(2634.43 -2.26997 0.0321236)
(2634.43 -2.2868 0.032126)
(2634.43 -2.30389 0.0321284)
(2634.43 -2.32124 0.0321308)
(2634.43 -2.33885 0.0321333)
(2634.43 -2.35673 0.0321358)
(2634.44 -2.37489 0.0321383)
(2634.44 -2.39332 0.0321409)
(2634.44 -2.41205 0.0321435)
(2634.44 -2.43107 0.0321462)
(2634.44 -2.4504 0.0321489)
(2634.45 -2.45024 -0.000123867)
(2634.41 -2.11419 0.0321073)
(2634.41 -2.12879 0.0321094)
(2634.41 -2.1436 0.0321115)
(2634.41 -2.15861 0.0321136)
(2634.41 -2.17383 0.0321158)
(2634.41 -2.18927 0.032118)
(2634.41 -2.20494 0.0321202)
(2634.41 -2.22082 0.0321225)
(2634.41 -2.23694 0.0321248)
(2634.42 -2.25329 0.0321271)
(2634.42 -2.26989 0.0321295)
(2634.42 -2.28673 0.0321319)
(2634.42 -2.30382 0.0321343)
(2634.42 -2.32117 0.0321368)
(2634.42 -2.33878 0.0321393)
(2634.42 -2.35666 0.0321418)
(2634.42 -2.37482 0.0321444)
(2634.42 -2.39326 0.0321471)
(2634.42 -2.41198 0.0321497)
(2634.42 -2.43101 0.0321524)
(2634.42 -2.45033 0.0321552)
(2634.44 -2.45018 -0.000121881)
(2634.4 -2.11409 0.0321128)
(2634.4 -2.1287 0.0321149)
(2634.4 -2.1435 0.032117)
(2634.4 -2.15851 0.0321192)
(2634.4 -2.17374 0.0321214)
(2634.4 -2.18918 0.0321236)
(2634.4 -2.20484 0.0321259)
(2634.4 -2.22073 0.0321282)
(2634.4 -2.23685 0.0321306)
(2634.4 -2.2532 0.0321329)
(2634.4 -2.2698 0.0321353)
(2634.4 -2.28664 0.0321378)
(2634.4 -2.30373 0.0321403)
(2634.4 -2.32109 0.0321428)
(2634.4 -2.3387 0.0321453)
(2634.4 -2.35658 0.0321479)
(2634.4 -2.37474 0.0321505)
(2634.4 -2.39318 0.0321532)
(2634.4 -2.41191 0.0321559)
(2634.4 -2.43094 0.0321587)
(2634.41 -2.45027 0.0321615)
(2634.42 -2.45011 -0.0001199)
(2634.38 -2.11399 0.0321182)
(2634.38 -2.12859 0.0321204)
(2634.38 -2.1434 0.0321226)
(2634.38 -2.15841 0.0321248)
(2634.38 -2.17364 0.032127)
(2634.38 -2.18908 0.0321293)
(2634.38 -2.20475 0.0321316)
(2634.38 -2.22064 0.0321339)
(2634.38 -2.23676 0.0321363)
(2634.38 -2.25311 0.0321387)
(2634.39 -2.26971 0.0321412)
(2634.39 -2.28655 0.0321437)
(2634.39 -2.30365 0.0321462)
(2634.39 -2.321 0.0321488)
(2634.39 -2.33861 0.0321514)
(2634.39 -2.3565 0.032154)
(2634.39 -2.37466 0.0321567)
(2634.39 -2.3931 0.0321594)
(2634.39 -2.41183 0.0321622)
(2634.39 -2.43086 0.032165)
(2634.39 -2.45019 0.0321678)
(2634.41 -2.45004 -0.000117925)
(2634.37 -2.11388 0.0321237)
(2634.37 -2.12849 0.0321259)
(2634.37 -2.14329 0.0321281)
(2634.37 -2.15831 0.0321303)
(2634.37 -2.17354 0.0321326)
(2634.37 -2.18898 0.0321349)
(2634.37 -2.20464 0.0321373)
(2634.37 -2.22053 0.0321397)
(2634.37 -2.23666 0.0321421)
(2634.37 -2.25301 0.0321445)
(2634.37 -2.26961 0.032147)
(2634.37 -2.28645 0.0321496)
(2634.37 -2.30355 0.0321521)
(2634.37 -2.3209 0.0321547)
(2634.37 -2.33852 0.0321574)
(2634.37 -2.35641 0.0321601)
(2634.37 -2.37457 0.0321628)
(2634.37 -2.39302 0.0321656)
(2634.37 -2.41175 0.0321684)
(2634.37 -2.43078 0.0321712)
(2634.37 -2.45011 0.0321741)
(2634.39 -2.44996 -0.000115957)
(2634.35 -2.11379 0.0321291)
(2634.35 -2.1284 0.0321314)
(2634.35 -2.14321 0.0321336)
(2634.35 -2.15822 0.0321359)
(2634.35 -2.17345 0.0321383)
(2634.35 -2.1889 0.0321406)
(2634.35 -2.20456 0.032143)
(2634.35 -2.22046 0.0321454)
(2634.35 -2.23658 0.0321479)
(2634.35 -2.25294 0.0321504)
(2634.35 -2.26954 0.0321529)
(2634.35 -2.28638 0.0321555)
(2634.35 -2.30348 0.0321581)
(2634.35 -2.32084 0.0321608)
(2634.35 -2.33846 0.0321635)
(2634.36 -2.35634 0.0321662)
(2634.36 -2.37451 0.032169)
(2634.36 -2.39295 0.0321718)
(2634.36 -2.41169 0.0321746)
(2634.36 -2.43072 0.0321775)
(2634.36 -2.45006 0.0321805)
(2634.37 -2.4499 -0.000113323)
(2634.34 -2.10817 0.0321521)
(2634.34 -2.12274 0.0321544)
(2634.34 -2.13751 0.0321569)
(2634.34 -2.15249 0.0321593)
(2634.34 -2.16768 0.0321618)
(2634.34 -2.18309 0.0321644)
(2634.34 -2.19871 0.0321669)
(2634.34 -2.21457 0.0321695)
(2634.34 -2.23065 0.0321722)
(2634.34 -2.24697 0.0321748)
(2634.34 -2.26353 0.0321776)
(2634.34 -2.28033 0.0321803)
(2634.34 -2.29739 0.0321831)
(2634.34 -2.3147 0.032186)
(2634.34 -2.33228 0.0321889)
(2634.34 -2.35012 0.0321918)
(2634.34 -2.36824 0.0321948)
(2634.34 -2.38664 0.0321978)
(2634.34 -2.40533 0.0322009)
(2634.34 -2.42432 0.032204)
(2634.34 -2.4436 0.0322071)
(2634.35 -2.44392 -0.000512724)
)
;

boundaryField
{
    inlet
    {
        type            calculated;
        value           uniform (0 0 0);
    }
    outlet2
    {
        type            calculated;
        value           uniform (0 0 0);
    }
    outlet1
    {
        type            calculated;
        value           uniform (0 0 0);
    }
    wall
    {
        type            calculated;
        value           uniform (0 0 0);
    }
    symmetryBottom
    {
        type            symmetry;
    }
    symmetryZ0
    {
        type            symmetry;
    }
    symmetryZ05
    {
        type            symmetry;
    }
}


// ************************************************************************* //
