/*--------------------------------*- C++ -*----------------------------------*\
| =========                 |                                                 |
| \\      /  F ield         | OpenFOAM: The Open Source CFD Toolbox           |
|  \\    /   O peration     | Version:  2412                                  |
|   \\  /    A nd           | Website:  www.openfoam.com                      |
|    \\/     M anipulation  |                                                 |
\*---------------------------------------------------------------------------*/
FoamFile
{
    version     2.0;
    format      ascii;
    arch        "LSB;label=32;scalar=64";
    class       volScalarField;
    location    "9.7e-06";
    object      E;
}
// * * * * * * * * * * * * * * * * * * * * * * * * * * * * * * * * * * * * * //

dimensions      [0 0 0 0 0 0 0];

internalField   nonuniform List<scalar> 
84
(
102.228
49.9423
54.0095
53.8157
53.8421
53.8635
53.8275
54.5289
109.808
53.7392
58.1621
58.0182
58.1121
58.2025
58.2408
58.9839
108.235
53.8862
57.6379
57.5498
57.6336
57.7172
57.7483
58.4866
106.957
52.9598
57.2174
57.0679
57.1509
57.1716
57.9045
107.099
52.374
56.6762
56.5149
56.5889
56.5995
57.3272
106.129
51.8794
56.1355
55.9675
56.0323
56.0331
56.7555
105.15
51.3929
55.5997
55.4253
55.4811
55.4724
56.1895
103.863
51.1663
55.0435
54.8898
54.9352
54.9172
55.6291
102.771
50.4879
54.5683
54.3865
54.3677
55.0742
102.316
49.9661
54.0416
53.8513
53.8235
54.5248
101.296
49.4945
53.5175
53.3213
53.2846
53.9808
99.3871
49.1616
52.986
52.7922
52.8051
52.7512
53.4426
)
;

boundaryField
{
    inlet
    {
        type            calculated;
        value           nonuniform List<scalar> 0();
    }
    outlet2
    {
        type            calculated;
        value           uniform 0;
    }
    outlet1
    {
        type            calculated;
        value           uniform 0;
    }
    wall
    {
        type            calculated;
        value           uniform 0;
    }
    symmetryBottom
    {
        type            symmetry;
    }
    symmetryZ0
    {
        type            symmetry;
    }
    symmetryZ05
    {
        type            symmetry;
    }
    procBoundary0to1
    {
        type            processor;
        value           uniform 0;
    }
}


// ************************************************************************* //
