/*--------------------------------*- C++ -*----------------------------------*\
| =========                 |                                                 |
| \\      /  F ield         | OpenFOAM: The Open Source CFD Toolbox           |
|  \\    /   O peration     | Version:  2412                                  |
|   \\  /    A nd           | Website:  www.openfoam.com                      |
|    \\/     M anipulation  |                                                 |
\*---------------------------------------------------------------------------*/
FoamFile
{
    version     2.0;
    format      ascii;
    arch        "LSB;label=32;scalar=64";
    class       volScalarField;
    location    "9.1e-06";
    object      rho_dof0;
}
// * * * * * * * * * * * * * * * * * * * * * * * * * * * * * * * * * * * * * //

dimensions      [0 0 0 0 0 0 0];

internalField   nonuniform List<scalar> 
84
(
3.33275e-05
2.51308e-06
5.15632e-06
3.33386e-05
2.53569e-06
4.96979e-06
3.33454e-05
2.53405e-06
4.99393e-06
3.33456e-05
2.5314e-06
5.0182e-06
3.33459e-05
2.52876e-06
5.04243e-06
3.33461e-05
2.52613e-06
5.06652e-06
3.33463e-05
2.5235e-06
5.09048e-06
3.33466e-05
2.52089e-06
5.11431e-06
3.33468e-05
2.51829e-06
5.13801e-06
3.33471e-05
2.5157e-06
5.16158e-06
3.33473e-05
2.51311e-06
5.18502e-06
3.33477e-05
2.5105e-06
5.20831e-06
1.68504e-05
1.58663e-05
1.51318e-05
1.80193e-05
1.69294e-05
1.61424e-05
1.78857e-05
1.68075e-05
1.60404e-05
1.77352e-05
1.66304e-05
1.6854e-05
1.43739e-05
1.75843e-05
1.64988e-05
1.66073e-05
1.57599e-05
1.74348e-05
1.63635e-05
1.64667e-05
1.56474e-05
1.72866e-05
1.62291e-05
1.6329e-05
1.55175e-05
1.71395e-05
1.60959e-05
1.61922e-05
1.53944e-05
1.69936e-05
1.59647e-05
1.60225e-05
1.61098e-05
1.45775e-05
1.6849e-05
1.58335e-05
1.58909e-05
1.59255e-05
1.51323e-05
1.67055e-05
1.57034e-05
1.57582e-05
1.57889e-05
1.50225e-05
1.65633e-05
1.55737e-05
1.56566e-05
1.49014e-05
)
;

boundaryField
{
    inlet
    {
        type            calculated;
        value           uniform 2.81085e-05;
    }
    outlet2
    {
        type            calculated;
        value           uniform 2.81085e-05;
    }
    outlet1
    {
        type            calculated;
        value           nonuniform List<scalar> 0();
    }
    wall
    {
        type            calculated;
        value           uniform 2.81085e-05;
    }
    symmetryBottom
    {
        type            symmetry;
    }
    symmetryZ0
    {
        type            symmetry;
    }
    symmetryZ05
    {
        type            symmetry;
    }
    procBoundary1to0
    {
        type            processor;
        value           uniform 2.81085e-05;
    }
}


// ************************************************************************* //
