/*--------------------------------*- C++ -*----------------------------------*\
| =========                 |                                                 |
| \\      /  F ield         | OpenFOAM: The Open Source CFD Toolbox           |
|  \\    /   O peration     | Version:  2412                                  |
|   \\  /    A nd           | Website:  www.openfoam.com                      |
|    \\/     M anipulation  |                                                 |
\*---------------------------------------------------------------------------*/
FoamFile
{
    version     2.0;
    format      ascii;
    arch        "LSB;label=32;scalar=64";
    class       volVectorField;
    location    "9.1e-06";
    object      rhoU_dof0;
}
// * * * * * * * * * * * * * * * * * * * * * * * * * * * * * * * * * * * * * //

dimensions      [0 0 0 0 0 0 0];

internalField   nonuniform List<vector> 
84
(
(0.088006 1.86781e-07 -3.55474e-21)
(0.00637425 -4.45917e-07 2.48902e-20)
(0.0134221 1.13376e-07 -1.23367e-19)
(0.0880352 -0.000256534 -3.76338e-21)
(0.00643454 -2.95435e-05 2.62501e-20)
(0.0129252 -4.6745e-05 -1.29215e-19)
(0.0880531 -0.000256587 4.94577e-21)
(0.00643005 -2.95758e-05 -3.44381e-20)
(0.0129893 -4.65241e-05 1.69004e-19)
(0.0880537 -0.000256596 -6.45831e-21)
(0.00642296 -2.95541e-05 4.49677e-20)
(0.0130539 -4.67371e-05 -2.22625e-19)
(0.0880544 -0.000256599 -1.14683e-20)
(0.00641589 -2.95308e-05 7.91978e-20)
(0.0131183 -4.6954e-05 -3.82294e-19)
(0.088055 -0.000256601 6.28105e-21)
(0.00640885 -2.95077e-05 -4.34156e-20)
(0.0131824 -4.71687e-05 2.12275e-19)
(0.0880557 -0.000256603 -8.41498e-21)
(0.00640183 -2.94847e-05 5.85064e-20)
(0.0132462 -4.73821e-05 -2.85864e-19)
(0.0880563 -0.000256605 -9.76642e-21)
(0.00639484 -2.94618e-05 6.78474e-20)
(0.0133096 -4.75944e-05 -3.32344e-19)
(0.088057 -0.000256607 3.63387e-21)
(0.00638788 -2.94389e-05 -2.51574e-20)
(0.0133726 -4.78056e-05 1.21695e-19)
(0.0880576 -0.000256609 -8.30789e-21)
(0.00638095 -2.94162e-05 5.83657e-20)
(0.0134353 -4.80156e-05 -2.90657e-19)
(0.0880583 -0.000256611 -2.15251e-20)
(0.00637402 -2.93934e-05 1.50459e-19)
(0.0134977 -4.82244e-05 -7.41993e-19)
(0.0880594 -0.000256836 6.96206e-24)
(0.00636704 -2.89747e-05 -1.3687e-22)
(0.0135596 -4.81272e-05 2.06439e-21)
(0.0442937 -2.99902e-06 -2.0488e-21)
(0.0416778 -2.8517e-06 1.90149e-19)
(0.0397185 -2.74911e-06 -2.22127e-20)
(0.0473937 -0.000164153 -1.49817e-21)
(0.0444952 -0.000157023 1.93364e-19)
(0.0423952 -0.000148987 -2.60234e-20)
(0.0470403 -0.000165861 -1.10781e-20)
(0.0441732 -0.000158535 -6.66394e-20)
(0.0421262 -0.000152338 -2.76712e-19)
(0.0466419 -0.00016455 2.1457e-20)
(0.0437033 -0.000156191 -3.6551e-21)
(0.0443 -0.000174216 -2.72023e-20)
(0.0377154 4.74398e-05 3.71056e-19)
(0.0462427 -0.000163155 -5.04136e-20)
(0.0433556 -0.000155546 2.0416e-21)
(0.0436458 -0.000159314 -2.65487e-20)
(0.0413844 -0.000146737 3.28773e-19)
(0.0458471 -0.000161791 -7.20667e-21)
(0.0429977 -0.000154307 -1.88358e-19)
(0.043274 -0.000157676 -7.01821e-21)
(0.0410873 -0.00014904 2.23464e-19)
(0.0454549 -0.000160439 2.71164e-20)
(0.0426426 -0.000153061 -3.63688e-21)
(0.0429098 -0.000156375 -1.70049e-21)
(0.0407442 -0.000147868 -1.70625e-22)
(0.0450658 -0.000159098 4.7647e-20)
(0.0422903 -0.000151826 -2.0718e-19)
(0.0425481 -0.000155021 1.98176e-19)
(0.0404193 -0.000148217 1.03445e-21)
(0.0446799 -0.000157766 9.33558e-21)
(0.0419437 -0.000150637 -2.58526e-19)
(0.0420982 -0.000152667 -2.72534e-19)
(0.0423312 -0.000169695 1.63634e-19)
(0.038258 4.64567e-05 1.79045e-18)
(0.0442972 -0.000156446 4.98643e-20)
(0.0415969 -0.0001494 -2.90558e-19)
(0.0417503 -0.000152027 1.77346e-19)
(0.0418431 -0.000154912 4.25268e-19)
(0.0397268 -0.000144917 2.94072e-19)
(0.0439176 -0.000155137 7.35918e-20)
(0.0412532 -0.000148191 -4.41682e-21)
(0.0413996 -0.000150834 5.02067e-23)
(0.041482 -0.0001523 1.89673e-20)
(0.039437 -0.000160825 -2.36812e-19)
(0.0435414 -0.000153801 -2.10313e-20)
(0.0409102 -0.000146913 2.82045e-19)
(0.0411324 -0.000149163 1.29202e-20)
(0.0391173 -0.000159641 -4.5537e-19)
)
;

boundaryField
{
    inlet
    {
        type            calculated;
        value           uniform (0.0741049 0 0);
    }
    outlet2
    {
        type            calculated;
        value           uniform (0.0741049 0 0);
    }
    outlet1
    {
        type            calculated;
        value           nonuniform List<vector> 0();
    }
    wall
    {
        type            calculated;
        value           uniform (0.0741049 0 0);
    }
    symmetryBottom
    {
        type            symmetry;
    }
    symmetryZ0
    {
        type            symmetry;
    }
    symmetryZ05
    {
        type            symmetry;
    }
    procBoundary1to0
    {
        type            processor;
        value           uniform (0.0741049 0 0);
    }
}


// ************************************************************************* //
