/*--------------------------------*- C++ -*----------------------------------*\
| =========                 |                                                 |
| \\      /  F ield         | OpenFOAM: The Open Source CFD Toolbox           |
|  \\    /   O peration     | Version:  2412                                  |
|   \\  /    A nd           | Website:  www.openfoam.com                      |
|    \\/     M anipulation  |                                                 |
\*---------------------------------------------------------------------------*/
FoamFile
{
    version     2.0;
    format      ascii;
    arch        "LSB;label=32;scalar=64";
    class       volScalarField;
    location    "3.9e-06";
    object      E;
}
// * * * * * * * * * * * * * * * * * * * * * * * * * * * * * * * * * * * * * //

dimensions      [0 0 0 0 0 0 0];

internalField   nonuniform List<scalar> 
84
(
98.4624
75.7556
77.1954
77.1379
77.1417
77.1438
77.146
77.478
102.061
78.5876
80.1199
80.1049
80.1546
80.2039
80.2549
80.5968
101.479
78.4831
79.8009
79.797
79.8411
79.8854
79.9312
80.2721
101.191
78.0407
79.5499
79.527
79.5682
79.6088
79.9486
100.992
77.7363
79.2433
79.2156
79.2518
79.2872
79.626
100.618
77.4411
78.9383
78.906
78.9372
78.9675
79.3053
100.252
77.1531
78.6401
78.6033
78.6297
78.655
78.9918
99.7813
76.9753
78.3392
78.3067
78.328
78.3485
78.6844
99.4847
76.6286
78.0944
78.0497
78.0675
78.4025
99.1118
76.2542
77.7121
77.6618
77.6736
78.0073
98.7057
75.9788
77.4229
77.3683
77.3753
77.7081
97.9966
75.7492
77.1233
77.0685
77.0706
77.071
77.4029
)
;

boundaryField
{
    inlet
    {
        type            calculated;
        value           nonuniform List<scalar> 0();
    }
    outlet2
    {
        type            calculated;
        value           uniform 0;
    }
    outlet1
    {
        type            calculated;
        value           uniform 0;
    }
    wall
    {
        type            calculated;
        value           uniform 0;
    }
    symmetryBottom
    {
        type            symmetry;
    }
    symmetryZ0
    {
        type            symmetry;
    }
    symmetryZ05
    {
        type            symmetry;
    }
    procBoundary0to1
    {
        type            processor;
        value           uniform 0;
    }
}


// ************************************************************************* //
