/*--------------------------------*- C++ -*----------------------------------*\
| =========                 |                                                 |
| \\      /  F ield         | OpenFOAM: The Open Source CFD Toolbox           |
|  \\    /   O peration     | Version:  2412                                  |
|   \\  /    A nd           | Website:  www.openfoam.com                      |
|    \\/     M anipulation  |                                                 |
\*---------------------------------------------------------------------------*/
FoamFile
{
    version     2.0;
    format      ascii;
    arch        "LSB;label=32;scalar=64";
    class       volScalarField;
    location    "1.4e-06";
    object      E;
}
// * * * * * * * * * * * * * * * * * * * * * * * * * * * * * * * * * * * * * //

dimensions      [0 0 0 0 0 0 0];

internalField   nonuniform List<scalar> 
84
(
99.3902
90.5628
90.7546
90.7525
90.7529
90.7533
90.7538
90.8883
100.69
91.7726
91.9846
92.001
92.0206
92.0408
92.0617
92.1975
100.53
91.671
91.8585
91.8735
91.8912
91.9094
91.9281
92.0638
100.419
91.5407
91.7488
91.7619
91.778
91.7947
91.9303
100.309
91.4153
91.6216
91.6327
91.6469
91.6614
91.7969
100.176
91.2912
91.4954
91.5046
91.5167
91.5292
91.6645
100.046
91.1698
91.3719
91.3792
91.3893
91.3998
91.5349
99.9022
91.0617
91.2494
91.255
91.2632
91.2717
91.4067
99.7958
90.948
91.1463
91.1502
91.1569
91.2918
99.6341
90.7847
90.9805
90.9818
90.9858
91.1205
99.502
90.6677
90.8613
90.8607
90.8628
90.9975
99.2394
90.552
90.7355
90.7332
90.7333
90.7334
90.8679
)
;

boundaryField
{
    inlet
    {
        type            calculated;
        value           nonuniform List<scalar> 0();
    }
    outlet2
    {
        type            calculated;
        value           uniform 0;
    }
    outlet1
    {
        type            calculated;
        value           uniform 0;
    }
    wall
    {
        type            calculated;
        value           uniform 0;
    }
    symmetryBottom
    {
        type            symmetry;
    }
    symmetryZ0
    {
        type            symmetry;
    }
    symmetryZ05
    {
        type            symmetry;
    }
    procBoundary0to1
    {
        type            processor;
        value           uniform 0;
    }
}


// ************************************************************************* //
