/*--------------------------------*- C++ -*----------------------------------*\
| =========                 |                                                 |
| \\      /  F ield         | OpenFOAM: The Open Source CFD Toolbox           |
|  \\    /   O peration     | Version:  2412                                  |
|   \\  /    A nd           | Website:  www.openfoam.com                      |
|    \\/     M anipulation  |                                                 |
\*---------------------------------------------------------------------------*/
FoamFile
{
    version     2.0;
    format      ascii;
    arch        "LSB;label=32;scalar=64";
    class       volScalarField;
    location    "1.4e-06";
    object      rho_dof0;
}
// * * * * * * * * * * * * * * * * * * * * * * * * * * * * * * * * * * * * * //

dimensions      [0 0 0 0 0 0 0];

internalField   nonuniform List<scalar> 
84
(
2.81013e-05
2.56335e-05
2.56866e-05
2.56861e-05
2.56862e-05
2.56864e-05
2.56866e-05
2.57242e-05
2.8461e-05
2.59685e-05
2.60271e-05
2.60318e-05
2.60372e-05
2.60429e-05
2.60487e-05
2.60867e-05
2.84164e-05
2.594e-05
2.59919e-05
2.59961e-05
2.6001e-05
2.60061e-05
2.60114e-05
2.60493e-05
2.83854e-05
2.59037e-05
2.59612e-05
2.59649e-05
2.59694e-05
2.59741e-05
2.6012e-05
2.83546e-05
2.58686e-05
2.59257e-05
2.59288e-05
2.59327e-05
2.59368e-05
2.59747e-05
2.83172e-05
2.58337e-05
2.58901e-05
2.58927e-05
2.58961e-05
2.58996e-05
2.59374e-05
2.82798e-05
2.57988e-05
2.58547e-05
2.58567e-05
2.58595e-05
2.58624e-05
2.59002e-05
2.82384e-05
2.57674e-05
2.58192e-05
2.58208e-05
2.58231e-05
2.58254e-05
2.58631e-05
2.82034e-05
2.57306e-05
2.57853e-05
2.57862e-05
2.5788e-05
2.58257e-05
2.81701e-05
2.5696e-05
2.57502e-05
2.57506e-05
2.57518e-05
2.57895e-05
2.81302e-05
2.56606e-05
2.57141e-05
2.5714e-05
2.57146e-05
2.57522e-05
2.80557e-05
2.56276e-05
2.56783e-05
2.56776e-05
2.56777e-05
2.56777e-05
2.57153e-05
)
;

boundaryField
{
    inlet
    {
        type            calculated;
        value           nonuniform List<scalar> 0();
    }
    outlet2
    {
        type            calculated;
        value           uniform 2.81085e-05;
    }
    outlet1
    {
        type            calculated;
        value           uniform 2.81085e-05;
    }
    wall
    {
        type            calculated;
        value           uniform 2.81085e-05;
    }
    symmetryBottom
    {
        type            symmetry;
    }
    symmetryZ0
    {
        type            symmetry;
    }
    symmetryZ05
    {
        type            symmetry;
    }
    procBoundary0to1
    {
        type            processor;
        value           uniform 2.81085e-05;
    }
}


// ************************************************************************* //
