/*--------------------------------*- C++ -*----------------------------------*\
| =========                 |                                                 |
| \\      /  F ield         | OpenFOAM: The Open Source CFD Toolbox           |
|  \\    /   O peration     | Version:  2412                                  |
|   \\  /    A nd           | Website:  www.openfoam.com                      |
|    \\/     M anipulation  |                                                 |
\*---------------------------------------------------------------------------*/
FoamFile
{
    version     2.0;
    format      ascii;
    arch        "LSB;label=32;scalar=64";
    class       volVectorField;
    location    "1.4e-06";
    object      U;
}
// * * * * * * * * * * * * * * * * * * * * * * * * * * * * * * * * * * * * * //

dimensions      [0 0 0 0 0 0 0];

internalField   nonuniform List<vector> 
84
(
(2636.08 1.48001 1.59778e-15)
(2634.61 1.5073 -1.81061e-15)
(2634.68 1.52925 -4.03022e-15)
(2634.67 1.55214 1.84926e-15)
(2634.67 1.57572 -1.30969e-17)
(2634.66 1.60003 2.20699e-16)
(2634.66 1.6251 3.70788e-15)
(2634.68 1.62447 8.06517e-16)
(2636.56 -1.47566 1.49374e-15)
(2635.1 -1.51322 -1.63197e-15)
(2635.17 -1.53488 -4.90162e-15)
(2635.17 -1.558 1.5868e-16)
(2635.18 -1.5818 -8.46429e-15)
(2635.18 -1.60634 1.06539e-15)
(2635.18 -1.63165 7.02894e-15)
(2635.21 -1.63085 1.77473e-15)
(2636.53 -1.44029 -6.89272e-15)
(2635.09 -1.54252 1.12343e-15)
(2635.15 -1.53447 2.44333e-15)
(2635.15 -1.5583 -8.03222e-17)
(2635.15 -1.5821 -4.52505e-17)
(2635.16 -1.60665 3.44225e-15)
(2635.16 -1.63197 -2.71177e-15)
(2635.18 -1.63117 -3.58072e-15)
(2636.51 -1.46885 -6.95256e-15)
(2635.06 -1.53657 3.51995e-15)
(2635.13 -1.55857 -1.00632e-16)
(2635.13 -1.5824 -7.85453e-15)
(2635.13 -1.60696 7.07165e-15)
(2635.14 -1.6323 1.66144e-15)
(2635.16 -1.6315 -2.62858e-15)
(2636.5 -1.49822 -3.83739e-15)
(2635.04 -1.53649 -1.66279e-15)
(2635.11 -1.55892 3.53703e-17)
(2635.11 -1.58276 9.64718e-18)
(2635.11 -1.60733 -2.45314e-15)
(2635.11 -1.63268 1.89593e-15)
(2635.14 -1.63188 5.27161e-15)
(2636.47 -1.42541 -2.38429e-15)
(2635.01 -1.46096 4.27346e-15)
(2635.08 -1.48242 -9.03179e-17)
(2635.08 -1.50519 5.19638e-15)
(2635.08 -1.52866 -4.38769e-15)
(2635.08 -1.55287 3.72533e-15)
(2635.11 -1.55212 -8.1892e-15)
(2636.43 -1.1503 -2.48923e-19)
(2634.96 -1.17809 4.25506e-15)
(2635.03 -1.19539 -8.97683e-17)
(2635.03 -1.21375 -1.227e-17)
(2635.03 -1.23268 4.41376e-15)
(2635.03 -1.2522 7.85528e-16)
(2635.06 -1.25161 4.62518e-15)
(2636.39 -0.942067 7.28353e-18)
(2634.94 -1.01751 5.8842e-18)
(2635 -1.00848 -1.34251e-17)
(2635 -1.02459 -1.31059e-17)
(2635 -1.0406 4.41267e-20)
(2635 -1.05712 9.92517e-19)
(2635.02 -1.05664 -3.37614e-15)
(2636.37 -0.878848 8.27788e-15)
(2634.91 -0.915761 -1.90436e-16)
(2634.97 -0.92928 -8.52373e-15)
(2634.97 -0.943757 -3.43727e-15)
(2634.97 -0.958685 4.39554e-15)
(2635 -0.958267 -2.4264e-18)
(2636.37 -0.898768 -2.99552e-15)
(2634.91 -0.918014 7.20948e-17)
(2634.98 -0.931713 -4.24597e-15)
(2634.98 -0.946104 4.34818e-15)
(2634.98 -0.960941 7.8708e-15)
(2635 -0.960535 6.25907e-19)
(2636.36 -0.994114 -4.05237e-15)
(2634.9 -1.03143 9.35116e-17)
(2634.96 -1.04646 1.46321e-18)
(2634.96 -1.06269 7.8406e-15)
(2634.96 -1.07942 8.58394e-15)
(2634.99 -1.07896 9.7183e-16)
(2636.33 -0.0368915 -7.82004e-17)
(2634.89 -1.25752 1.13153e-18)
(2634.95 -1.2376 -1.02423e-20)
(2634.95 -1.25714 5.17592e-15)
(2634.95 -1.27661 -1.13051e-16)
(2634.95 -1.2967 1.50731e-18)
(2634.97 -1.29618 -4.46946e-15)
)
;

boundaryField
{
    inlet
    {
        type            calculated;
        value           nonuniform List<vector> 0();
    }
    outlet2
    {
        type            calculated;
        value           uniform (0 0 0);
    }
    outlet1
    {
        type            calculated;
        value           uniform (0 0 0);
    }
    wall
    {
        type            calculated;
        value           uniform (0 0 0);
    }
    symmetryBottom
    {
        type            symmetry;
    }
    symmetryZ0
    {
        type            symmetry;
    }
    symmetryZ05
    {
        type            symmetry;
    }
    procBoundary0to1
    {
        type            processor;
        value           uniform (0 0 0);
    }
}


// ************************************************************************* //
