/*--------------------------------*- C++ -*----------------------------------*\
| =========                 |                                                 |
| \\      /  F ield         | OpenFOAM: The Open Source CFD Toolbox           |
|  \\    /   O peration     | Version:  2412                                  |
|   \\  /    A nd           | Website:  www.openfoam.com                      |
|    \\/     M anipulation  |                                                 |
\*---------------------------------------------------------------------------*/
FoamFile
{
    version     2.0;
    format      ascii;
    arch        "LSB;label=32;scalar=64";
    class       volScalarField;
    location    "8.1e-06";
    object      rho_dof0;
}
// * * * * * * * * * * * * * * * * * * * * * * * * * * * * * * * * * * * * * //

dimensions      [0 0 0 0 0 0 0];

internalField   nonuniform List<scalar> 
84
(
2.69171e-05
1.53365e-05
1.68624e-05
1.67313e-05
1.67418e-05
1.67434e-05
1.67454e-05
1.69038e-05
2.89228e-05
1.65101e-05
1.81645e-05
1.80441e-05
1.80757e-05
1.80983e-05
1.81223e-05
1.82905e-05
2.8489e-05
1.66038e-05
1.79874e-05
1.79053e-05
1.79309e-05
1.79514e-05
1.79728e-05
1.81399e-05
2.83429e-05
1.62846e-05
1.79007e-05
1.77785e-05
1.7806e-05
1.78244e-05
1.79906e-05
2.83074e-05
1.61413e-05
1.77604e-05
1.76359e-05
1.7661e-05
1.7677e-05
1.78422e-05
2.80905e-05
1.60143e-05
1.76191e-05
1.74934e-05
1.7516e-05
1.75296e-05
1.76937e-05
2.78722e-05
1.58894e-05
1.74781e-05
1.73514e-05
1.73716e-05
1.73828e-05
1.75458e-05
2.75465e-05
1.5889e-05
1.73211e-05
1.72151e-05
1.7231e-05
1.724e-05
1.74021e-05
2.73478e-05
1.5648e-05
1.71993e-05
1.70707e-05
1.70862e-05
1.72467e-05
2.72627e-05
1.55297e-05
1.70804e-05
1.69503e-05
1.69641e-05
1.71238e-05
2.69864e-05
1.54102e-05
1.69348e-05
1.68045e-05
1.68157e-05
1.69743e-05
2.65915e-05
1.53483e-05
1.67931e-05
1.66711e-05
1.66793e-05
1.66794e-05
1.68375e-05
)
;

boundaryField
{
    inlet
    {
        type            calculated;
        value           nonuniform List<scalar> 0();
    }
    outlet2
    {
        type            calculated;
        value           uniform 2.81085e-05;
    }
    outlet1
    {
        type            calculated;
        value           uniform 2.81085e-05;
    }
    wall
    {
        type            calculated;
        value           uniform 2.81085e-05;
    }
    symmetryBottom
    {
        type            symmetry;
    }
    symmetryZ0
    {
        type            symmetry;
    }
    symmetryZ05
    {
        type            symmetry;
    }
    procBoundary0to1
    {
        type            processor;
        value           uniform 2.81085e-05;
    }
}


// ************************************************************************* //
