/*--------------------------------*- C++ -*----------------------------------*\
| =========                 |                                                 |
| \\      /  F ield         | OpenFOAM: The Open Source CFD Toolbox           |
|  \\    /   O peration     | Version:  2412                                  |
|   \\  /    A nd           | Website:  www.openfoam.com                      |
|    \\/     M anipulation  |                                                 |
\*---------------------------------------------------------------------------*/
FoamFile
{
    version     2.0;
    format      ascii;
    arch        "LSB;label=32;scalar=64";
    class       volVectorField;
    location    "8.1e-06";
    object      rhoU_dof0;
}
// * * * * * * * * * * * * * * * * * * * * * * * * * * * * * * * * * * * * * //

dimensions      [0 0 0 0 0 0 0];

internalField   nonuniform List<vector> 
84
(
(0.070885 0.000220143 2.31525e-19)
(0.0402322 0.000127792 -2.10668e-19)
(0.0442948 0.0001423 -3.20803e-19)
(0.0439432 0.000143219 2.10252e-19)
(0.043971 0.000145376 -4.27856e-20)
(0.0439745 0.000147517 3.10718e-20)
(0.0439795 0.000149727 3.08804e-19)
(0.0443985 0.000150827 2.41404e-20)
(0.0762444 -0.000245748 2.20988e-19)
(0.0433587 -0.000145873 -2.10705e-19)
(0.0477673 -0.000161119 -4.31326e-19)
(0.0474437 -0.000162686 7.09483e-20)
(0.0475278 -0.00016544 -8.09383e-19)
(0.0475877 -0.000168218 2.18656e-19)
(0.047651 -0.000171094 6.51314e-19)
(0.0480963 -0.000172267 1.05455e-19)
(0.0750919 -0.000214123 -8.72378e-19)
(0.0436114 -0.000173242 1.94382e-19)
(0.0472974 -0.000155271 2.20462e-19)
(0.047077 -0.000161873 -3.92972e-20)
(0.0471447 -0.000164119 -1.40144e-20)
(0.0471989 -0.000166887 3.10219e-19)
(0.0472555 -0.000169717 -2.69868e-19)
(0.047698 -0.000170884 -2.90754e-19)
(0.0747047 -0.000223546 -8.23896e-19)
(0.0427634 -0.000147326 3.83919e-19)
(0.0470694 -0.000161223 -5.63026e-20)
(0.0467414 -0.000162801 -7.12431e-19)
(0.0468144 -0.000165568 7.36208e-19)
(0.0468632 -0.000168353 1.02495e-19)
(0.047303 -0.000169513 -2.68549e-19)
(0.0746125 -0.000244909 -4.6665e-19)
(0.0423842 -0.000144226 -1.08861e-19)
(0.0466984 -0.000160181 1.84824e-20)
(0.0463642 -0.000161589 5.58836e-21)
(0.0464309 -0.000164323 -2.35428e-19)
(0.0464732 -0.000167067 2.13981e-19)
(0.0469104 -0.000168221 4.61295e-19)
(0.0740369 -0.000236602 -3.26053e-19)
(0.0420479 -0.000138984 3.97292e-19)
(0.0463239 -0.000154535 -5.8722e-20)
(0.0459864 -0.000155932 4.66112e-19)
(0.0460467 -0.000158625 -4.43245e-19)
(0.0460826 -0.00016133 3.69364e-19)
(0.046517 -0.000162445 -7.69598e-19)
(0.0734541 -0.000188661 -1.42589e-22)
(0.0417143 -0.000111323 3.52247e-19)
(0.0459471 -0.000123331 -5.48824e-20)
(0.0456071 -0.000124491 3.59646e-21)
(0.0456609 -0.000126614 3.80684e-19)
(0.0456903 -0.000128751 3.42641e-20)
(0.0461219 -0.000129645 3.74988e-19)
(0.0725886 -0.000134738 1.0141e-20)
(0.0417126 -0.000117144 8.31234e-21)
(0.0455292 -0.000101274 -2.93227e-21)
(0.0452448 -0.000106299 -7.39254e-21)
(0.045287 -0.000107756 -1.2852e-21)
(0.0453107 -0.000109623 3.77548e-21)
(0.0457396 -0.000110379 -2.87102e-19)
(0.072057 -0.000129211 1.20698e-18)
(0.0410688 -8.48587e-05 -1.51554e-19)
(0.0452027 -9.30286e-05 -7.9115e-19)
(0.0448576 -9.38991e-05 -2.04578e-19)
(0.0448986 -9.54788e-05 4.49542e-19)
(0.0453235 -9.61478e-05 -7.62727e-20)
(0.0718393 -0.000136821 -4.1384e-19)
(0.0407699 -8.00167e-05 5.37473e-20)
(0.0448998 -8.89491e-05 -3.63149e-19)
(0.0445513 -8.9619e-05 4.17368e-19)
(0.0445882 -9.10397e-05 6.61645e-19)
(0.0450106 -9.16923e-05 -9.60771e-20)
(0.0711093 -0.000141234 -4.90264e-19)
(0.0404525 -9.34075e-05 7.05918e-20)
(0.044514 -0.000100902 -4.97456e-21)
(0.0441648 -0.000101947 6.93576e-19)
(0.0441947 -0.000103578 6.86362e-19)
(0.0446144 -0.000104316 5.02737e-21)
(0.0700649 -2.6485e-05 -4.96623e-20)
(0.0402894 -0.000133453 4.76413e-21)
(0.0441397 -0.000115392 -3.21701e-22)
(0.0438125 -0.000119498 4.34001e-19)
(0.0438346 -0.000121129 -6.53113e-20)
(0.0438347 -0.000123018 6.0925e-21)
(0.0442532 -0.000123903 -3.50314e-19)
)
;

boundaryField
{
    inlet
    {
        type            calculated;
        value           nonuniform List<vector> 0();
    }
    outlet2
    {
        type            calculated;
        value           uniform (0.0741049 0 0);
    }
    outlet1
    {
        type            calculated;
        value           uniform (0.0741049 0 0);
    }
    wall
    {
        type            calculated;
        value           uniform (0.0741049 0 0);
    }
    symmetryBottom
    {
        type            symmetry;
    }
    symmetryZ0
    {
        type            symmetry;
    }
    symmetryZ05
    {
        type            symmetry;
    }
    procBoundary0to1
    {
        type            processor;
        value           uniform (0.0741049 0 0);
    }
}


// ************************************************************************* //
