/*--------------------------------*- C++ -*----------------------------------*\
| =========                 |                                                 |
| \\      /  F ield         | OpenFOAM: The Open Source CFD Toolbox           |
|  \\    /   O peration     | Version:  2412                                  |
|   \\  /    A nd           | Website:  www.openfoam.com                      |
|    \\/     M anipulation  |                                                 |
\*---------------------------------------------------------------------------*/
FoamFile
{
    version     2.0;
    format      ascii;
    arch        "LSB;label=32;scalar=64";
    class       volScalarField;
    location    "6.9e-06";
    object      rho_dof0;
}
// * * * * * * * * * * * * * * * * * * * * * * * * * * * * * * * * * * * * * //

dimensions      [0 0 0 0 0 0 0];

internalField   nonuniform List<scalar> 
84
(
2.72373e-05
1.69984e-05
1.81457e-05
1.80624e-05
1.80686e-05
1.807e-05
1.80716e-05
1.82144e-05
2.89647e-05
1.81036e-05
1.93382e-05
1.92682e-05
1.92934e-05
1.93141e-05
1.93358e-05
1.94861e-05
2.86157e-05
1.81473e-05
1.91876e-05
1.91405e-05
1.91617e-05
1.91804e-05
1.91998e-05
1.93492e-05
2.8486e-05
1.78894e-05
1.90987e-05
1.90262e-05
1.90477e-05
1.90647e-05
1.92134e-05
2.84381e-05
1.776e-05
1.89707e-05
1.88961e-05
1.89155e-05
1.89303e-05
1.90782e-05
2.82526e-05
1.76411e-05
1.88422e-05
1.87661e-05
1.87833e-05
1.87959e-05
1.8943e-05
2.80663e-05
1.75237e-05
1.87139e-05
1.86365e-05
1.86516e-05
1.86619e-05
1.88083e-05
2.7798e-05
1.74981e-05
1.85762e-05
1.85109e-05
1.85228e-05
1.85312e-05
1.86767e-05
2.76277e-05
1.72955e-05
1.84611e-05
1.8381e-05
1.83918e-05
1.85364e-05
2.75409e-05
1.71849e-05
1.83494e-05
1.82678e-05
1.82771e-05
1.84209e-05
2.73098e-05
1.70701e-05
1.82176e-05
1.8135e-05
1.8142e-05
1.82851e-05
2.69676e-05
1.7001e-05
1.80895e-05
1.80116e-05
1.80161e-05
1.80163e-05
1.81589e-05
)
;

boundaryField
{
    inlet
    {
        type            calculated;
        value           nonuniform List<scalar> 0();
    }
    outlet2
    {
        type            calculated;
        value           uniform 2.81085e-05;
    }
    outlet1
    {
        type            calculated;
        value           uniform 2.81085e-05;
    }
    wall
    {
        type            calculated;
        value           uniform 2.81085e-05;
    }
    symmetryBottom
    {
        type            symmetry;
    }
    symmetryZ0
    {
        type            symmetry;
    }
    symmetryZ05
    {
        type            symmetry;
    }
    procBoundary0to1
    {
        type            processor;
        value           uniform 2.81085e-05;
    }
}


// ************************************************************************* //
