/*--------------------------------*- C++ -*----------------------------------*\
| =========                 |                                                 |
| \\      /  F ield         | OpenFOAM: The Open Source CFD Toolbox           |
|  \\    /   O peration     | Version:  2412                                  |
|   \\  /    A nd           | Website:  www.openfoam.com                      |
|    \\/     M anipulation  |                                                 |
\*---------------------------------------------------------------------------*/
FoamFile
{
    version     2.0;
    format      ascii;
    arch        "LSB;label=32;scalar=64";
    class       volScalarField;
    location    "3e-06";
    object      E_dof0;
}
// * * * * * * * * * * * * * * * * * * * * * * * * * * * * * * * * * * * * * //

dimensions      [0 0 0 0 0 0 0];

internalField   nonuniform List<scalar> 
84
(
99.4327
56.8683
61.6628
99.4415
56.8824
61.6754
99.4392
56.8808
61.6738
99.4392
56.8808
61.6738
99.4392
56.8808
61.6738
99.4392
56.8808
61.6738
99.4392
56.8808
61.6738
99.4392
56.8808
61.6738
99.4392
56.8808
61.6738
99.4392
56.8808
61.6738
99.4392
56.8808
61.6738
99.4394
56.8773
61.6711
82.839
81.7399
82.0122
85.1726
83.9821
84.2632
84.932
83.7508
84.0298
84.6919
83.52
83.5854
81.6511
84.4523
83.2898
83.3514
83.594
84.2143
83.061
83.1189
83.361
83.9817
82.8373
82.8915
83.1332
83.7525
82.6168
82.6675
82.908
83.5454
82.4167
82.4642
82.4743
81.7009
83.2432
82.1287
82.1715
82.1773
82.4187
83.0219
81.9156
81.9549
81.9579
82.2307
82.7925
81.6948
81.7306
81.9695
)
;

boundaryField
{
    inlet
    {
        type            calculated;
        value           uniform 99.4306;
    }
    outlet2
    {
        type            calculated;
        value           uniform 99.4306;
    }
    outlet1
    {
        type            calculated;
        value           nonuniform List<scalar> 0();
    }
    wall
    {
        type            calculated;
        value           uniform 99.4306;
    }
    symmetryBottom
    {
        type            symmetry;
    }
    symmetryZ0
    {
        type            symmetry;
    }
    symmetryZ05
    {
        type            symmetry;
    }
    procBoundary1to0
    {
        type            processor;
        value           uniform 99.4306;
    }
}


// ************************************************************************* //
