/*--------------------------------*- C++ -*----------------------------------*\
| =========                 |                                                 |
| \\      /  F ield         | OpenFOAM: The Open Source CFD Toolbox           |
|  \\    /   O peration     | Version:  2412                                  |
|   \\  /    A nd           | Website:  www.openfoam.com                      |
|    \\/     M anipulation  |                                                 |
\*---------------------------------------------------------------------------*/
FoamFile
{
    version     2.0;
    format      ascii;
    arch        "LSB;label=32;scalar=64";
    class       volVectorField;
    location    "3e-06";
    object      rhoU;
}
// * * * * * * * * * * * * * * * * * * * * * * * * * * * * * * * * * * * * * //

dimensions      [0 0 0 0 0 0 0];

internalField   nonuniform List<vector> 
84
(
(0.0741065 -1.56433e-07 0)
(0.0425447 -3.68509e-07 0)
(0.0460806 -3.16306e-07 -8.89946e-20)
(0.074113 -7.47644e-05 0)
(0.0425553 -4.98955e-05 0)
(0.04609 -5.29423e-05 -8.58708e-20)
(0.0741113 -7.46017e-05 0)
(0.0425541 -4.97825e-05 0)
(0.0460888 -5.28231e-05 1.18657e-19)
(0.0741113 -7.46017e-05 0)
(0.0425541 -4.97825e-05 0)
(0.0460888 -5.28231e-05 -1.54595e-19)
(0.0741113 -7.46017e-05 0)
(0.0425541 -4.97825e-05 0)
(0.0460888 -5.28231e-05 -2.59184e-19)
(0.0741113 -7.46017e-05 0)
(0.0425541 -4.97825e-05 0)
(0.0460888 -5.28231e-05 1.48322e-19)
(0.0741113 -7.46017e-05 0)
(0.0425541 -4.97825e-05 0)
(0.0460888 -5.28231e-05 -1.92065e-19)
(0.0741113 -7.46017e-05 0)
(0.0425541 -4.97825e-05 0)
(0.0460888 -5.28231e-05 -2.24837e-19)
(0.0741113 -7.46017e-05 0)
(0.0425541 -4.97825e-05 0)
(0.0460888 -5.28231e-05 8.58656e-20)
(0.0741113 -7.46017e-05 0)
(0.0425541 -4.97824e-05 0)
(0.0460888 -5.28231e-05 -1.90519e-19)
(0.0741113 -7.46017e-05 0)
(0.0425541 -4.97814e-05 0)
(0.0460888 -5.28222e-05 -4.65298e-19)
(0.0741114 -7.4612e-05 0)
(0.0425515 -4.95306e-05 0)
(0.0460869 -5.26297e-05 0)
(0.061803 7.3739e-05 4.33399e-21)
(0.0609921 7.0865e-05 7.85153e-20)
(0.0611938 7.11417e-05 7.86267e-21)
(0.0635302 -7.37879e-05 4.17129e-21)
(0.0626521 -7.38718e-05 8.37983e-20)
(0.0628602 -7.40498e-05 -1.08904e-21)
(0.0633518 -7.35999e-05 -6.4185e-21)
(0.0624805 -7.36838e-05 -3.87788e-20)
(0.0626871 -7.38245e-05 -1.72481e-19)
(0.0631738 -7.34084e-05 8.24834e-21)
(0.0623094 -7.34964e-05 -1.54279e-21)
(0.0623575 -7.45926e-05 6.10627e-23)
(0.0609231 2.56161e-06 1.21905e-19)
(0.0629961 -7.32267e-05 -2.89856e-20)
(0.0621386 -7.33183e-05 1.4631e-22)
(0.0621839 -7.44092e-05 -1.28044e-21)
(0.0623639 -7.4561e-05 1.25708e-19)
(0.0628182 -6.96109e-05 -8.06928e-21)
(0.0619675 -6.9849e-05 -8.36485e-20)
(0.0620101 -7.08901e-05 1.60332e-21)
(0.0621897 -7.10357e-05 8.26226e-20)
(0.0626397 -5.5398e-05 9.50107e-21)
(0.0617959 -5.6166e-05 -5.49052e-22)
(0.0618357 -5.69815e-05 -3.91944e-22)
(0.0620149 -5.70997e-05 -6.75488e-22)
(0.0624635 -4.6334e-05 1.23967e-20)
(0.0616265 -4.74379e-05 -8.14395e-20)
(0.0616636 -4.81139e-05 8.92507e-20)
(0.0618419 -4.81873e-05 8.35764e-22)
(0.0622836 -4.13726e-05 -4.28192e-21)
(0.0614531 -4.26518e-05 -1.21837e-19)
(0.0614874 -4.32421e-05 -1.18038e-19)
(0.0614943 -4.38724e-05 1.35014e-19)
(0.0609624 2.72657e-06 7.87125e-19)
(0.0621173 -4.10445e-05 1.03847e-20)
(0.0612942 -4.23277e-05 -1.22577e-19)
(0.0613259 -4.29011e-05 8.45562e-20)
(0.0613305 -4.35156e-05 1.98713e-19)
(0.0615098 -4.37377e-05 1.17506e-19)
(0.06194 -4.65087e-05 2.52617e-20)
(0.0611236 -4.75757e-05 -7.51207e-22)
(0.0611525 -4.82361e-05 1.73387e-22)
(0.0611548 -4.89562e-05 -8.96777e-23)
(0.0613571 -5.07958e-05 -1.25134e-19)
(0.0617671 -5.62692e-05 9.05277e-23)
(0.0609572 -5.6938e-05 1.17185e-19)
(0.0609835 -5.77455e-05 -5.64772e-21)
(0.0611607 -5.78532e-05 -2.1096e-19)
)
;

boundaryField
{
    inlet
    {
        type            calculated;
        value           uniform (0 0 0);
    }
    outlet2
    {
        type            calculated;
        value           uniform (0 0 0);
    }
    outlet1
    {
        type            calculated;
        value           nonuniform List<vector> 0();
    }
    wall
    {
        type            calculated;
        value           uniform (0 0 0);
    }
    symmetryBottom
    {
        type            symmetry;
    }
    symmetryZ0
    {
        type            symmetry;
    }
    symmetryZ05
    {
        type            symmetry;
    }
    procBoundary1to0
    {
        type            processor;
        value           uniform (0 0 0);
    }
}


// ************************************************************************* //
