/*--------------------------------*- C++ -*----------------------------------*\
| =========                 |                                                 |
| \\      /  F ield         | OpenFOAM: The Open Source CFD Toolbox           |
|  \\    /   O peration     | Version:  2412                                  |
|   \\  /    A nd           | Website:  www.openfoam.com                      |
|    \\/     M anipulation  |                                                 |
\*---------------------------------------------------------------------------*/
FoamFile
{
    version     2.0;
    format      ascii;
    arch        "LSB;label=32;scalar=64";
    class       volScalarField;
    location    "3e-06";
    object      T;
}
// * * * * * * * * * * * * * * * * * * * * * * * * * * * * * * * * * * * * * //

dimensions      [0 0 0 0 0 0 0];

internalField   nonuniform List<scalar> 
84
(
200.003
199.901
200.023
199.992
199.878
200.002
199.989
199.874
199.999
199.989
199.874
199.999
199.989
199.874
199.999
199.989
199.874
199.999
199.989
199.874
199.999
199.989
199.874
199.999
199.989
199.874
199.999
199.989
199.874
199.999
199.989
199.874
199.999
199.989
199.867
199.993
201.838
201.784
201.786
200.009
199.998
199.999
200.009
199.998
199.999
200.009
199.998
199.999
200.007
200.01
199.999
200
200
200.336
200.316
200.321
200.321
201.648
201.596
201.622
201.621
202.883
202.8
202.845
202.842
207.786
207.568
207.692
207.808
199.646
196.929
196.989
196.943
196.898
196.842
199.275
199.283
199.273
199.262
199.289
199.702
199.699
199.695
199.695
)
;

boundaryField
{
    inlet
    {
        type            calculated;
        value           uniform 0;
    }
    outlet2
    {
        type            calculated;
        value           uniform 0;
    }
    outlet1
    {
        type            calculated;
        value           nonuniform List<scalar> 0();
    }
    wall
    {
        type            calculated;
        value           uniform 0;
    }
    symmetryBottom
    {
        type            symmetry;
    }
    symmetryZ0
    {
        type            symmetry;
    }
    symmetryZ05
    {
        type            symmetry;
    }
    procBoundary1to0
    {
        type            processor;
        value           uniform 0;
    }
}


// ************************************************************************* //
