/*--------------------------------*- C++ -*----------------------------------*\
| =========                 |                                                 |
| \\      /  F ield         | OpenFOAM: The Open Source CFD Toolbox           |
|  \\    /   O peration     | Version:  2412                                  |
|   \\  /    A nd           | Website:  www.openfoam.com                      |
|    \\/     M anipulation  |                                                 |
\*---------------------------------------------------------------------------*/
FoamFile
{
    version     2.0;
    format      ascii;
    arch        "LSB;label=32;scalar=64";
    class       volVectorField;
    location    "3e-06";
    object      U;
}
// * * * * * * * * * * * * * * * * * * * * * * * * * * * * * * * * * * * * * //

dimensions      [0 0 0 0 0 0 0];

internalField   nonuniform List<vector> 
84
(
(2636.39 -0.00556522 0)
(2626.06 -0.0227461 0)
(2629.04 -0.0180463 -5.07743e-15)
(2636.39 -2.65956 0)
(2626.06 -3.07902 0)
(2629.04 -3.01991 -4.8982e-15)
(2636.39 -2.65383 0)
(2626.06 -3.07213 0)
(2629.04 -3.01319 6.76857e-15)
(2636.39 -2.65383 0)
(2626.06 -3.07213 0)
(2629.04 -3.01319 -8.81855e-15)
(2636.39 -2.65383 0)
(2626.06 -3.07213 0)
(2629.04 -3.01319 -1.47846e-14)
(2636.39 -2.65383 0)
(2626.06 -3.07213 0)
(2629.04 -3.01319 8.46075e-15)
(2636.39 -2.65383 0)
(2626.06 -3.07213 0)
(2629.04 -3.01319 -1.0956e-14)
(2636.39 -2.65383 0)
(2626.06 -3.07213 0)
(2629.04 -3.01319 -1.28254e-14)
(2636.39 -2.65383 0)
(2626.06 -3.07213 0)
(2629.04 -3.01319 4.89803e-15)
(2636.39 -2.65383 0)
(2626.06 -3.07213 0)
(2629.04 -3.01319 -1.08678e-14)
(2636.39 -2.65383 0)
(2626.06 -3.07206 0)
(2629.04 -3.01314 -2.6542e-14)
(2636.39 -2.6542 0)
(2626.06 -3.05677 0)
(2629.04 -3.00228 0)
(2633.13 3.14166 1.8465e-16)
(2632.73 3.0589 3.38912e-15)
(2632.8 3.0608 3.38283e-16)
(2634.16 -3.05948 1.72955e-16)
(2633.73 -3.10538 3.52266e-15)
(2633.8 -3.10263 -4.56301e-17)
(2634.11 -3.06022 -2.66876e-16)
(2633.69 -3.10593 -1.63461e-15)
(2633.75 -3.10168 -7.24668e-15)
(2634.07 -3.0608 3.43919e-16)
(2633.64 -3.10649 -6.52096e-17)
(2633.67 -3.15042 2.57898e-18)
(2633.29 0.110721 5.26912e-15)
(2634.02 -3.06179 -1.21196e-15)
(2633.6 -3.10743 6.201e-18)
(2633.63 -3.15139 -5.42292e-17)
(2633.67 -3.14876 5.30875e-15)
(2633.96 -2.91878 -3.38344e-16)
(2633.54 -2.96849 -3.55495e-15)
(2633.56 -3.0107 6.80931e-17)
(2633.61 -3.00822 3.4989e-15)
(2633.86 -2.32936 3.99499e-16)
(2633.44 -2.39352 -2.33979e-17)
(2633.46 -2.42673 -1.66921e-17)
(2633.51 -2.42478 -2.86851e-17)
(2633.8 -1.95369 5.22711e-16)
(2633.37 -2.02707 -3.48e-15)
(2633.4 -2.05475 3.81153e-15)
(2633.44 -2.05198 3.55897e-17)
(2633.74 -1.74949 -1.81066e-16)
(2633.3 -1.82765 -5.22077e-15)
(2633.32 -1.85193 -5.05523e-15)
(2633.32 -1.87871 5.78159e-15)
(2633.28 0.117774 3.4e-14)
(2633.75 -1.74027 4.40309e-16)
(2633.35 -1.8185 -5.26621e-15)
(2633.37 -1.8422 3.63089e-15)
(2633.37 -1.86845 8.53223e-15)
(2633.42 -1.87254 5.0308e-15)
(2633.72 -1.97757 1.07414e-15)
(2633.32 -2.04965 -3.23633e-17)
(2633.34 -2.07713 7.46634e-18)
(2633.34 -2.10806 -3.86153e-18)
(2633.39 -2.18011 -5.37062e-15)
(2633.69 -2.39927 3.86001e-18)
(2633.29 -2.45966 5.06229e-15)
(2633.31 -2.49349 -2.43873e-16)
(2633.36 -2.49095 -9.08318e-15)
)
;

boundaryField
{
    inlet
    {
        type            calculated;
        value           uniform (0 0 0);
    }
    outlet2
    {
        type            calculated;
        value           uniform (0 0 0);
    }
    outlet1
    {
        type            calculated;
        value           nonuniform List<vector> 0();
    }
    wall
    {
        type            calculated;
        value           uniform (0 0 0);
    }
    symmetryBottom
    {
        type            symmetry;
    }
    symmetryZ0
    {
        type            symmetry;
    }
    symmetryZ05
    {
        type            symmetry;
    }
    procBoundary1to0
    {
        type            processor;
        value           uniform (0 0 0);
    }
}


// ************************************************************************* //
