/*--------------------------------*- C++ -*----------------------------------*\
| =========                 |                                                 |
| \\      /  F ield         | OpenFOAM: The Open Source CFD Toolbox           |
|  \\    /   O peration     | Version:  2412                                  |
|   \\  /    A nd           | Website:  www.openfoam.com                      |
|    \\/     M anipulation  |                                                 |
\*---------------------------------------------------------------------------*/
FoamFile
{
    version     2.0;
    format      ascii;
    arch        "LSB;label=32;scalar=64";
    class       volScalarField;
    location    "6.4e-06";
    object      E_dof0;
}
// * * * * * * * * * * * * * * * * * * * * * * * * * * * * * * * * * * * * * //

dimensions      [0 0 0 0 0 0 0];

internalField   nonuniform List<scalar> 
84
(
96.6611
62.2335
65.8494
65.6034
65.6205
65.6245
65.6292
66.1124
102.472
66.0714
69.9552
69.758
69.8405
69.911
69.9845
70.4918
101.34
66.1722
69.4541
69.323
69.3929
69.4564
69.5222
70.027
100.903
65.3337
69.1413
68.9353
69.0052
69.0629
69.5653
100.722
64.8951
68.706
68.4929
68.5555
68.6058
69.1057
100.109
64.4892
68.271
68.0524
68.1078
68.1506
68.648
99.507
64.0949
67.8456
67.6221
67.6703
67.7059
68.2009
98.6493
63.9899
67.3956
67.2065
67.245
67.2739
67.7665
98.1664
63.3841
67.0664
66.8342
66.8698
67.3598
97.6676
62.881
66.547
66.308
66.3356
66.8224
96.9574
62.5125
66.1312
65.8884
65.9088
66.3934
95.833
62.2666
65.7044
65.4739
65.4865
65.4871
65.97
)
;

boundaryField
{
    inlet
    {
        type            calculated;
        value           nonuniform List<scalar> 0();
    }
    outlet2
    {
        type            calculated;
        value           uniform 99.4306;
    }
    outlet1
    {
        type            calculated;
        value           uniform 99.4306;
    }
    wall
    {
        type            calculated;
        value           uniform 99.4306;
    }
    symmetryBottom
    {
        type            symmetry;
    }
    symmetryZ0
    {
        type            symmetry;
    }
    symmetryZ05
    {
        type            symmetry;
    }
    procBoundary0to1
    {
        type            processor;
        value           uniform 99.4306;
    }
}


// ************************************************************************* //
