/*--------------------------------*- C++ -*----------------------------------*\
| =========                 |                                                 |
| \\      /  F ield         | OpenFOAM: The Open Source CFD Toolbox           |
|  \\    /   O peration     | Version:  2412                                  |
|   \\  /    A nd           | Website:  www.openfoam.com                      |
|    \\/     M anipulation  |                                                 |
\*---------------------------------------------------------------------------*/
FoamFile
{
    version     2.0;
    format      ascii;
    arch        "LSB;label=32;scalar=64";
    class       volVectorField;
    location    "6.4e-06";
    object      rhoU_dof0;
}
// * * * * * * * * * * * * * * * * * * * * * * * * * * * * * * * * * * * * * //

dimensions      [0 0 0 0 0 0 0];

internalField   nonuniform List<vector> 
84
(
(0.0720718 0.000178941 1.8057e-19)
(0.0465297 0.00011803 -1.74077e-19)
(0.0491972 0.000126356 -2.94038e-19)
(0.0490169 0.000127729 1.93019e-19)
(0.0490295 0.000129632 -2.76316e-20)
(0.0490325 0.000131567 2.42682e-20)
(0.0490361 0.000133562 2.82716e-19)
(0.0493948 0.00013431 3.29454e-20)
(0.0763715 -0.000194761 1.82223e-19)
(0.0493755 -0.000130629 -1.74051e-19)
(0.0522399 -0.000139246 -3.8401e-19)
(0.0520959 -0.000141056 5.00536e-20)
(0.0521569 -0.00014337 -7.2323e-19)
(0.0522093 -0.00014574 1.77263e-19)
(0.0522639 -0.000148191 5.88533e-19)
(0.0526403 -0.000148968 1.15039e-19)
(0.0755341 -0.000174021 -7.24765e-19)
(0.0494475 -0.000147837 1.44328e-19)
(0.0518685 -0.000136106 2.165e-19)
(0.0517728 -0.000140375 -2.77651e-20)
(0.0518247 -0.000142482 -1.05964e-20)
(0.0518718 -0.000144833 2.80637e-19)
(0.0519207 -0.000147253 -2.4452e-19)
(0.0522953 -0.000148027 -2.68805e-19)
(0.0752098 -0.000180538 -6.9374e-19)
(0.0488272 -0.000131835 3.26067e-19)
(0.0516356 -0.000139765 -3.83498e-20)
(0.051485 -0.000141597 -6.52217e-19)
(0.0515367 -0.000143932 6.54209e-19)
(0.0515796 -0.000146322 1.04079e-19)
(0.0519524 -0.000147093 -2.45381e-19)
(0.0750743 -0.00019477 -4.34286e-19)
(0.0485015 -0.000130035 -1.1177e-19)
(0.0513123 -0.000139019 1.33542e-20)
(0.0511565 -0.000140772 4.051e-21)
(0.0512028 -0.000143083 -2.25366e-19)
(0.0512402 -0.000145446 1.97261e-19)
(0.0516111 -0.000146213 4.09698e-19)
(0.0746169 -0.00018736 -2.67388e-19)
(0.0481981 -0.000124841 3.50235e-19)
(0.0509874 -0.000133565 -4.02396e-20)
(0.0508274 -0.000135278 4.14866e-19)
(0.0508683 -0.000137535 -3.82697e-19)
(0.0509001 -0.000139843 3.23204e-19)
(0.0512693 -0.000140583 -6.91821e-19)
(0.0741551 -0.000149839 -1.02381e-22)
(0.0478954 -0.000100064 3.20693e-19)
(0.0506609 -0.000106856 -3.84972e-20)
(0.0504971 -0.000108237 1.48164e-21)
(0.0505325 -0.000110027 3.40342e-19)
(0.0505587 -0.000111858 4.01751e-20)
(0.0509261 -0.000112453 3.37194e-19)
(0.0735045 -0.000110408 6.91258e-21)
(0.0478055 -9.90425e-05 5.22703e-21)
(0.0503159 -8.88401e-05 -1.98875e-21)
(0.0501771 -9.19889e-05 -5.13098e-21)
(0.0502052 -9.33781e-05 -1.02784e-21)
(0.0502263 -9.49536e-05 2.44071e-21)
(0.0505918 -9.54569e-05 -2.72142e-19)
(0.0730818 -0.000105177 9.6664e-19)
(0.0473073 -7.64459e-05 -9.78437e-20)
(0.0500186 -8.11548e-05 -7.09825e-19)
(0.0498473 -8.21988e-05 -2.11724e-19)
(0.0498721 -8.35465e-05 3.93014e-19)
(0.0502354 -8.39955e-05 -5.07495e-20)
(0.0728581 -0.000110651 -3.39955e-19)
(0.0470343 -7.34251e-05 3.50012e-20)
(0.0497412 -7.85462e-05 -3.27067e-19)
(0.0495664 -7.9468e-05 3.66448e-19)
(0.0495873 -8.07113e-05 6.09144e-19)
(0.0499488 -8.1153e-05 -7.08266e-20)
(0.0722968 -0.000116011 -4.4466e-19)
(0.0467387 -8.43891e-05 4.77794e-20)
(0.0494088 -8.88629e-05 -2.34772e-21)
(0.0492308 -9.00249e-05 6.41809e-19)
(0.0492459 -9.14484e-05 6.51193e-19)
(0.0496057 -9.19463e-05 1.85944e-20)
(0.0714513 -1.79182e-05 -3.54775e-20)
(0.0465516 -0.000115389 2.61127e-21)
(0.0490868 -0.000102819 -1.3552e-22)
(0.0489178 -0.000105675 3.85882e-19)
(0.0489271 -0.000107211 -4.54692e-20)
(0.0489276 -0.000108883 3.30134e-21)
(0.0492861 -0.000109482 -3.18977e-19)
)
;

boundaryField
{
    inlet
    {
        type            calculated;
        value           nonuniform List<vector> 0();
    }
    outlet2
    {
        type            calculated;
        value           uniform (0.0741049 0 0);
    }
    outlet1
    {
        type            calculated;
        value           uniform (0.0741049 0 0);
    }
    wall
    {
        type            calculated;
        value           uniform (0.0741049 0 0);
    }
    symmetryBottom
    {
        type            symmetry;
    }
    symmetryZ0
    {
        type            symmetry;
    }
    symmetryZ05
    {
        type            symmetry;
    }
    procBoundary0to1
    {
        type            processor;
        value           uniform (0.0741049 0 0);
    }
}


// ************************************************************************* //
