/*--------------------------------*- C++ -*----------------------------------*\
| =========                 |                                                 |
| \\      /  F ield         | OpenFOAM: The Open Source CFD Toolbox           |
|  \\    /   O peration     | Version:  2412                                  |
|   \\  /    A nd           | Website:  www.openfoam.com                      |
|    \\/     M anipulation  |                                                 |
\*---------------------------------------------------------------------------*/
FoamFile
{
    version     2.0;
    format      ascii;
    arch        "LSB;label=32;scalar=64";
    class       volVectorField;
    location    "6.4e-06";
    object      U;
}
// * * * * * * * * * * * * * * * * * * * * * * * * * * * * * * * * * * * * * //

dimensions      [0 0 0 0 0 0 0];

internalField   nonuniform List<vector> 
84
(
(2634.26 6.54039 6.59993e-15)
(2626.76 6.66319 -9.82725e-15)
(2628.72 6.75149 -1.57111e-14)
(2628.52 6.84946 1.03506e-14)
(2628.51 6.94969 -1.48135e-15)
(2628.49 7.05293 1.30095e-15)
(2628.47 7.15928 1.51544e-14)
(2628.6 7.14743 1.75322e-15)
(2636.39 -6.72327 6.29044e-15)
(2629.03 -6.95539 -9.26742e-15)
(2630.99 -7.01294 -1.93401e-14)
(2630.82 -7.12327 2.52769e-15)
(2630.85 -7.23175 -3.64804e-14)
(2630.86 -7.34395 8.93238e-15)
(2630.88 -7.45967 2.96258e-14)
(2631 -7.44553 5.74975e-15)
(2636.16 -6.07337 -2.52945e-14)
(2629.2 -7.86074 7.67414e-15)
(2630.84 -6.90347 1.09812e-14)
(2630.73 -7.13285 -1.41082e-15)
(2630.75 -7.23275 -5.37901e-16)
(2630.76 -7.34544 1.42329e-14)
(2630.78 -7.46119 -1.23896e-14)
(2630.9 -7.44703 -1.35232e-14)
(2636.1 -6.32786 -2.43155e-14)
(2628.86 -7.09804 1.75555e-14)
(2630.8 -7.12093 -1.9539e-15)
(2630.63 -7.2349 -3.33251e-14)
(2630.66 -7.34692 3.33937e-14)
(2630.67 -7.46275 5.30824e-15)
(2630.8 -7.44858 -1.24257e-14)
(2636.12 -6.83906 -1.52493e-14)
(2628.74 -7.04776 -6.05781e-15)
(2630.71 -7.12729 6.84648e-16)
(2630.53 -7.23869 2.08308e-16)
(2630.56 -7.35093 -1.15782e-14)
(2630.57 -7.46688 1.0127e-14)
(2630.69 -7.4527 2.08829e-14)
(2636 -6.6189 -9.44606e-15)
(2628.6 -6.80854 1.9101e-14)
(2630.57 -6.89094 -2.07606e-15)
(2630.4 -7.00083 2.14699e-14)
(2630.42 -7.11196 -1.97894e-14)
(2630.43 -7.22682 1.67026e-14)
(2630.55 -7.21309 -3.54963e-14)
(2635.8 -5.32593 -3.63905e-18)
(2628.34 -5.49116 1.75985e-14)
(2630.32 -5.54798 -1.99878e-15)
(2630.14 -5.63751 7.71711e-17)
(2630.15 -5.72675 1.77144e-14)
(2630.16 -5.81907 2.08998e-15)
(2630.28 -5.80808 1.74158e-14)
(2635.61 -3.95885 2.4786e-16)
(2628.27 -5.44519 2.87373e-16)
(2630.11 -4.64385 -1.03956e-16)
(2629.95 -4.82145 -2.68932e-16)
(2629.97 -4.89154 -5.38428e-17)
(2629.97 -4.972 1.27801e-16)
(2630.09 -4.96248 -1.41477e-14)
(2635.41 -3.79279 3.48581e-14)
(2627.85 -4.24645 -5.43507e-15)
(2629.86 -4.26693 -3.73209e-14)
(2629.66 -4.33635 -1.11694e-14)
(2629.67 -4.40527 2.0723e-14)
(2629.8 -4.39713 -2.65672e-15)
(2635.54 -4.00266 -1.22974e-14)
(2628.26 -4.10297 1.95586e-15)
(2630.19 -4.15333 -1.72945e-14)
(2630.01 -4.2166 1.94439e-14)
(2630.03 -4.2808 3.2308e-14)
(2630.15 -4.27327 -3.72952e-15)
(2635.49 -4.22904 -1.62095e-14)
(2628.12 -4.7452 2.68664e-15)
(2630.06 -4.73023 -1.24971e-16)
(2629.88 -4.80908 3.42851e-14)
(2629.9 -4.88365 3.47759e-14)
(2630.02 -4.87486 9.85847e-16)
(2635.37 -0.660887 -1.30854e-15)
(2628.07 -6.51425 1.47419e-16)
(2629.99 -5.5089 -7.26093e-18)
(2629.81 -5.68108 2.07449e-14)
(2629.82 -5.76259 -2.44396e-15)
(2629.82 -5.85238 1.77444e-16)
(2629.95 -5.84204 -1.70209e-14)
)
;

boundaryField
{
    inlet
    {
        type            calculated;
        value           nonuniform List<vector> 0();
    }
    outlet2
    {
        type            calculated;
        value           uniform (0 0 0);
    }
    outlet1
    {
        type            calculated;
        value           uniform (0 0 0);
    }
    wall
    {
        type            calculated;
        value           uniform (0 0 0);
    }
    symmetryBottom
    {
        type            symmetry;
    }
    symmetryZ0
    {
        type            symmetry;
    }
    symmetryZ05
    {
        type            symmetry;
    }
    procBoundary0to1
    {
        type            processor;
        value           uniform (0 0 0);
    }
}


// ************************************************************************* //
