/*--------------------------------*- C++ -*----------------------------------*\
| =========                 |                                                 |
| \\      /  F ield         | OpenFOAM: The Open Source CFD Toolbox           |
|  \\    /   O peration     | Version:  2412                                  |
|   \\  /    A nd           | Website:  www.openfoam.com                      |
|    \\/     M anipulation  |                                                 |
\*---------------------------------------------------------------------------*/
FoamFile
{
    version     2.0;
    format      ascii;
    arch        "LSB;label=32;scalar=64";
    class       volScalarField;
    location    "8.9e-06";
    object      E_dof0;
}
// * * * * * * * * * * * * * * * * * * * * * * * * * * * * * * * * * * * * * //

dimensions      [0 0 0 0 0 0 0];

internalField   nonuniform List<scalar> 
84
(
117.546
9.4632
18.6266
117.584
9.54089
17.9788
117.607
9.53532
18.0629
117.608
9.52621
18.1473
117.609
9.51712
18.2316
117.61
9.50807
18.3155
117.611
9.49905
18.3988
117.611
9.49006
18.4818
117.612
9.48111
18.5642
117.613
9.4722
18.6463
117.614
9.46329
18.7279
117.615
9.45431
18.809
59.8866
56.4546
53.9126
63.9986
60.2013
57.4798
63.5281
59.7716
57.1179
62.9987
59.1524
59.9253
51.2648
62.4684
58.6886
59.0618
56.1322
61.9429
58.2119
58.5671
55.7342
61.4217
57.7388
58.0822
55.2762
60.9047
57.2696
57.6005
54.8415
60.3918
56.8074
57.007
57.3085
51.9715
59.8831
56.3453
56.5433
56.6617
53.9183
59.3785
55.8872
56.0759
56.1808
53.5297
58.8784
55.4302
55.7146
53.1019
)
;

boundaryField
{
    inlet
    {
        type            calculated;
        value           uniform 99.4306;
    }
    outlet2
    {
        type            calculated;
        value           uniform 99.4306;
    }
    outlet1
    {
        type            calculated;
        value           nonuniform List<scalar> 0();
    }
    wall
    {
        type            calculated;
        value           uniform 99.4306;
    }
    symmetryBottom
    {
        type            symmetry;
    }
    symmetryZ0
    {
        type            symmetry;
    }
    symmetryZ05
    {
        type            symmetry;
    }
    procBoundary1to0
    {
        type            processor;
        value           uniform 99.4306;
    }
}


// ************************************************************************* //
