/*--------------------------------*- C++ -*----------------------------------*\
| =========                 |                                                 |
| \\      /  F ield         | OpenFOAM: The Open Source CFD Toolbox           |
|  \\    /   O peration     | Version:  2412                                  |
|   \\  /    A nd           | Website:  www.openfoam.com                      |
|    \\/     M anipulation  |                                                 |
\*---------------------------------------------------------------------------*/
FoamFile
{
    version     2.0;
    format      ascii;
    arch        "LSB;label=32;scalar=64";
    class       volScalarField;
    location    "8.9e-06";
    object      rho;
}
// * * * * * * * * * * * * * * * * * * * * * * * * * * * * * * * * * * * * * //

dimensions      [0 0 0 0 0 0 0];

internalField   nonuniform List<scalar> 
84
(
3.31275e-05
2.86087e-06
5.39537e-06
3.31381e-05
2.88241e-06
5.21515e-06
3.31446e-05
2.88095e-06
5.23855e-06
3.31448e-05
2.87844e-06
5.262e-06
3.3145e-05
2.87594e-06
5.28541e-06
3.31452e-05
2.87346e-06
5.30869e-06
3.31455e-05
2.87098e-06
5.33184e-06
3.31457e-05
2.86851e-06
5.35487e-06
3.31459e-05
2.86605e-06
5.37778e-06
3.31461e-05
2.8636e-06
5.40057e-06
3.31464e-05
2.86116e-06
5.42323e-06
3.31467e-05
2.85869e-06
5.44576e-06
1.70209e-05
1.60666e-05
1.53647e-05
1.81746e-05
1.71193e-05
1.63682e-05
1.80425e-05
1.69985e-05
1.62659e-05
1.78939e-05
1.68255e-05
1.70389e-05
1.46242e-05
1.77451e-05
1.6695e-05
1.67976e-05
1.59891e-05
1.75976e-05
1.6561e-05
1.66586e-05
1.58768e-05
1.74513e-05
1.6428e-05
1.65223e-05
1.57479e-05
1.73062e-05
1.62961e-05
1.63869e-05
1.56253e-05
1.71622e-05
1.6166e-05
1.6221e-05
1.63042e-05
1.48199e-05
1.70194e-05
1.60361e-05
1.60906e-05
1.6123e-05
1.53656e-05
1.68777e-05
1.59072e-05
1.59591e-05
1.59878e-05
1.52558e-05
1.67373e-05
1.57787e-05
1.58566e-05
1.51353e-05
)
;

boundaryField
{
    inlet
    {
        type            calculated;
        value           uniform 0;
    }
    outlet2
    {
        type            calculated;
        value           uniform 0;
    }
    outlet1
    {
        type            calculated;
        value           nonuniform List<scalar> 0();
    }
    wall
    {
        type            calculated;
        value           uniform 0;
    }
    symmetryBottom
    {
        type            symmetry;
    }
    symmetryZ0
    {
        type            symmetry;
    }
    symmetryZ05
    {
        type            symmetry;
    }
    procBoundary1to0
    {
        type            processor;
        value           uniform 0;
    }
}


// ************************************************************************* //
