/*--------------------------------*- C++ -*----------------------------------*\
| =========                 |                                                 |
| \\      /  F ield         | OpenFOAM: The Open Source CFD Toolbox           |
|  \\    /   O peration     | Version:  2412                                  |
|   \\  /    A nd           | Website:  www.openfoam.com                      |
|    \\/     M anipulation  |                                                 |
\*---------------------------------------------------------------------------*/
FoamFile
{
    version     2.0;
    format      ascii;
    arch        "LSB;label=32;scalar=64";
    class       volVectorField;
    location    "8.9e-06";
    object      rhoU;
}
// * * * * * * * * * * * * * * * * * * * * * * * * * * * * * * * * * * * * * //

dimensions      [0 0 0 0 0 0 0];

internalField   nonuniform List<vector> 
84
(
(0.0874736 1.80908e-07 -3.37009e-21)
(0.00729254 -4.39952e-07 2.42721e-20)
(0.0140505 8.84698e-08 -1.23366e-19)
(0.0875016 -0.000250148 -3.56852e-21)
(0.00734997 -3.18556e-05 2.56062e-20)
(0.0135704 -4.79599e-05 -1.29214e-19)
(0.0875186 -0.000250198 4.69013e-21)
(0.00734595 -3.18861e-05 -3.35975e-20)
(0.0136325 -4.77517e-05 1.69004e-19)
(0.0875192 -0.000250207 -6.12455e-21)
(0.00733926 -3.18662e-05 4.38497e-20)
(0.0136949 -4.7953e-05 -2.23008e-19)
(0.0875199 -0.000250209 -1.08798e-20)
(0.00733257 -3.18448e-05 7.73052e-20)
(0.0137572 -4.81577e-05 -3.83066e-19)
(0.0875205 -0.000250211 5.95887e-21)
(0.00732592 -3.18235e-05 -4.23556e-20)
(0.0138191 -4.83603e-05 2.13059e-19)
(0.0875211 -0.000250212 -7.98058e-21)
(0.00731929 -3.18023e-05 5.70776e-20)
(0.0138807 -4.85618e-05 -2.86637e-19)
(0.0875217 -0.000250214 -9.26273e-21)
(0.00731269 -3.17812e-05 6.61846e-20)
(0.013942 -4.87623e-05 -3.33115e-19)
(0.0875223 -0.000250216 3.44717e-21)
(0.00730611 -3.17602e-05 -2.45528e-20)
(0.014003 -4.89617e-05 1.22089e-19)
(0.0875229 -0.000250218 -7.87488e-21)
(0.00729956 -3.17392e-05 5.68972e-20)
(0.0140636 -4.916e-05 -2.91425e-19)
(0.0875235 -0.00025022 -2.04086e-20)
(0.00729301 -3.17182e-05 1.46737e-19)
(0.0141239 -4.93573e-05 -7.43144e-19)
(0.0875245 -0.000250437 6.20752e-24)
(0.00728641 -3.13038e-05 -1.25807e-22)
(0.0141838 -4.92477e-05 1.94392e-21)
(0.0447442 -2.89791e-06 -1.86277e-21)
(0.0422076 -2.76384e-06 1.85973e-19)
(0.0403349 -2.67116e-06 -1.96925e-20)
(0.0478041 -0.000161998 -1.31046e-21)
(0.0449975 -0.000155346 1.8904e-19)
(0.0429929 -0.000147812 -2.3248e-20)
(0.0474546 -0.000163646 -1.08175e-20)
(0.0446781 -0.000156814 -6.67054e-20)
(0.0427231 -0.000150997 -2.7514e-19)
(0.0470614 -0.000162379 2.08694e-20)
(0.0442194 -0.000154578 -3.60609e-21)
(0.0447887 -0.00017194 -2.6082e-20)
(0.038378 4.55662e-05 3.62406e-19)
(0.0466676 -0.000161035 -5.19459e-20)
(0.0438745 -0.000153937 1.92246e-21)
(0.0441488 -0.000157577 -2.55889e-20)
(0.041991 -0.000145707 3.23034e-19)
(0.0462774 -0.00015972 -7.15195e-21)
(0.0435202 -0.000152737 -1.86884e-19)
(0.0437811 -0.000156002 -6.83895e-21)
(0.0416946 -0.000147914 2.20568e-19)
(0.0458903 -0.000158415 2.63601e-20)
(0.0431685 -0.00015153 -3.47617e-21)
(0.0434208 -0.000154744 -1.71035e-21)
(0.041354 -0.000146775 -2.06891e-22)
(0.0455063 -0.000157121 4.61967e-20)
(0.0428197 -0.000150335 -2.03693e-19)
(0.0430628 -0.000153438 1.94738e-19)
(0.0410304 -0.000147056 1.00142e-21)
(0.0451253 -0.000155835 8.9209e-21)
(0.042476 -0.000149182 -2.55672e-19)
(0.0426229 -0.000151191 -2.69283e-19)
(0.042845 -0.000167629 1.63957e-19)
(0.0388993 4.46551e-05 1.77304e-18)
(0.0447475 -0.000154562 4.82889e-20)
(0.0421325 -0.000147985 -2.86384e-19)
(0.0422781 -0.000150555 1.7491e-19)
(0.042365 -0.000153374 4.21308e-19)
(0.040344 -0.000143968 2.91078e-19)
(0.0443726 -0.000153298 7.16116e-20)
(0.0417919 -0.000146814 -4.19492e-21)
(0.0419307 -0.000149397 6.94789e-23)
(0.0420076 -0.00015089 1.83244e-20)
(0.0400545 -0.00015922 -2.34121e-19)
(0.0440011 -0.000152003 -2.02751e-20)
(0.0414522 -0.00014557 2.78572e-19)
(0.0416609 -0.000147784 1.24681e-20)
(0.039736 -0.000157968 -4.48707e-19)
)
;

boundaryField
{
    inlet
    {
        type            calculated;
        value           uniform (0 0 0);
    }
    outlet2
    {
        type            calculated;
        value           uniform (0 0 0);
    }
    outlet1
    {
        type            calculated;
        value           nonuniform List<vector> 0();
    }
    wall
    {
        type            calculated;
        value           uniform (0 0 0);
    }
    symmetryBottom
    {
        type            symmetry;
    }
    symmetryZ0
    {
        type            symmetry;
    }
    symmetryZ05
    {
        type            symmetry;
    }
    procBoundary1to0
    {
        type            processor;
        value           uniform (0 0 0);
    }
}


// ************************************************************************* //
