/*--------------------------------*- C++ -*----------------------------------*\
| =========                 |                                                 |
| \\      /  F ield         | OpenFOAM: The Open Source CFD Toolbox           |
|  \\    /   O peration     | Version:  2412                                  |
|   \\  /    A nd           | Website:  www.openfoam.com                      |
|    \\/     M anipulation  |                                                 |
\*---------------------------------------------------------------------------*/
FoamFile
{
    version     2.0;
    format      ascii;
    arch        "LSB;label=32;scalar=64";
    class       volScalarField;
    location    "8.9e-06";
    object      T;
}
// * * * * * * * * * * * * * * * * * * * * * * * * * * * * * * * * * * * * * //

dimensions      [0 0 0 0 0 0 0];

internalField   nonuniform List<scalar> 
84
(
200.061
189.78
197.878
200.022
189.582
199.287
200.047
189.595
199.357
200.047
189.565
199.38
200.047
189.535
199.403
200.047
189.504
199.426
200.047
189.474
199.448
200.047
189.444
199.469
200.047
189.414
199.49
200.047
189.384
199.511
200.047
189.354
199.53
200.048
189.327
199.551
203.416
203.27
203.179
200.038
199.998
199.918
200.033
199.995
199.922
200.033
199.988
199.997
199.817
200.033
199.988
200.008
199.871
200.033
199.988
200.004
199.913
200.033
199.988
200.004
199.914
200.033
199.988
200.003
199.92
200.033
199.988
199.997
199.991
199.844
200.033
199.988
199.996
200.007
199.87
200.032
199.988
199.996
200.007
199.852
200.033
199.989
200.004
199.904
)
;

boundaryField
{
    inlet
    {
        type            calculated;
        value           uniform 0;
    }
    outlet2
    {
        type            calculated;
        value           uniform 0;
    }
    outlet1
    {
        type            calculated;
        value           nonuniform List<scalar> 0();
    }
    wall
    {
        type            calculated;
        value           uniform 0;
    }
    symmetryBottom
    {
        type            symmetry;
    }
    symmetryZ0
    {
        type            symmetry;
    }
    symmetryZ05
    {
        type            symmetry;
    }
    procBoundary1to0
    {
        type            processor;
        value           uniform 0;
    }
}


// ************************************************************************* //
