/*--------------------------------*- C++ -*----------------------------------*\
| =========                 |                                                 |
| \\      /  F ield         | OpenFOAM: The Open Source CFD Toolbox           |
|  \\    /   O peration     | Version:  2412                                  |
|   \\  /    A nd           | Website:  www.openfoam.com                      |
|    \\/     M anipulation  |                                                 |
\*---------------------------------------------------------------------------*/
FoamFile
{
    version     2.0;
    format      ascii;
    arch        "LSB;label=32;scalar=64";
    class       volScalarField;
    location    "6.8e-06";
    object      rho_dof0;
}
// * * * * * * * * * * * * * * * * * * * * * * * * * * * * * * * * * * * * * //

dimensions      [0 0 0 0 0 0 0];

internalField   nonuniform List<scalar> 
84
(
2.72623e-05
1.71404e-05
1.82579e-05
1.8178e-05
1.81839e-05
1.81853e-05
1.81869e-05
1.83283e-05
2.89661e-05
1.82385e-05
1.94404e-05
1.93738e-05
1.93986e-05
1.94191e-05
1.94406e-05
1.95893e-05
2.86239e-05
1.82784e-05
1.92919e-05
1.92473e-05
1.92681e-05
1.92866e-05
1.93058e-05
1.94537e-05
2.84957e-05
1.80255e-05
1.9203e-05
1.9134e-05
1.91551e-05
1.91719e-05
1.93191e-05
2.8447e-05
1.78973e-05
1.90761e-05
1.90051e-05
1.90241e-05
1.90387e-05
1.91851e-05
2.82641e-05
1.77793e-05
1.89488e-05
1.88762e-05
1.8893e-05
1.89055e-05
1.90511e-05
2.80804e-05
1.76626e-05
1.88217e-05
1.87478e-05
1.87625e-05
1.87727e-05
1.89176e-05
2.78169e-05
1.76353e-05
1.86856e-05
1.86232e-05
1.86348e-05
1.86431e-05
1.87872e-05
2.7649e-05
1.74359e-05
1.85712e-05
1.84946e-05
1.85051e-05
1.86482e-05
2.75622e-05
1.73261e-05
1.84602e-05
1.83821e-05
1.83911e-05
1.85335e-05
2.73349e-05
1.72119e-05
1.83296e-05
1.82505e-05
1.82572e-05
1.83989e-05
2.69972e-05
1.71423e-05
1.82028e-05
1.8128e-05
1.81323e-05
1.81325e-05
1.82736e-05
)
;

boundaryField
{
    inlet
    {
        type            calculated;
        value           nonuniform List<scalar> 0();
    }
    outlet2
    {
        type            calculated;
        value           uniform 2.81085e-05;
    }
    outlet1
    {
        type            calculated;
        value           uniform 2.81085e-05;
    }
    wall
    {
        type            calculated;
        value           uniform 2.81085e-05;
    }
    symmetryBottom
    {
        type            symmetry;
    }
    symmetryZ0
    {
        type            symmetry;
    }
    symmetryZ05
    {
        type            symmetry;
    }
    procBoundary0to1
    {
        type            processor;
        value           uniform 2.81085e-05;
    }
}


// ************************************************************************* //
