/*--------------------------------*- C++ -*----------------------------------*\
| =========                 |                                                 |
| \\      /  F ield         | OpenFOAM: The Open Source CFD Toolbox           |
|  \\    /   O peration     | Version:  2412                                  |
|   \\  /    A nd           | Website:  www.openfoam.com                      |
|    \\/     M anipulation  |                                                 |
\*---------------------------------------------------------------------------*/
FoamFile
{
    version     2.0;
    format      ascii;
    arch        "LSB;label=32;scalar=64";
    class       volVectorField;
    location    "1.8e-06";
    object      rhoU_dof0;
}
// * * * * * * * * * * * * * * * * * * * * * * * * * * * * * * * * * * * * * //

dimensions      [0 0 0 0 0 0 0];

internalField   nonuniform List<vector> 
84
(
(0.0740197 5.3294e-05 5.68372e-20)
(0.0657135 4.82207e-05 -5.73218e-20)
(0.0659481 4.90912e-05 -1.30198e-19)
(0.0659444 4.98216e-05 5.98503e-20)
(0.065945 5.0577e-05 -1.11794e-21)
(0.0659455 5.13555e-05 7.20063e-21)
(0.065946 5.21585e-05 1.22113e-19)
(0.0660717 5.2232e-05 2.59195e-20)
(0.0752555 -5.41421e-05 5.66184e-20)
(0.0668342 -4.93653e-05 -5.47227e-20)
(0.067089 -5.02494e-05 -1.58403e-19)
(0.0671025 -5.10167e-05 6.27154e-21)
(0.0671209 -5.18102e-05 -2.78881e-19)
(0.0671397 -5.26286e-05 3.69539e-20)
(0.0671592 -5.34734e-05 2.29416e-19)
(0.0672866 -5.35421e-05 5.52471e-20)
(0.0750952 -5.23515e-05 -2.51442e-19)
(0.0667472 -5.06124e-05 3.67413e-20)
(0.066971 -5.01284e-05 8.18742e-20)
(0.0669837 -5.09374e-05 -3.18061e-21)
(0.0670002 -5.17276e-05 -1.69693e-21)
(0.0670172 -5.25435e-05 1.14711e-19)
(0.0670347 -5.33855e-05 -8.98562e-20)
(0.0671619 -5.34541e-05 -1.20527e-19)
(0.0749906 -5.34085e-05 -2.54305e-19)
(0.0666185 -4.99742e-05 1.16403e-19)
(0.0668693 -5.08587e-05 -4.08219e-21)
(0.0668797 -5.16451e-05 -2.57296e-19)
(0.0668948 -5.24584e-05 2.33536e-19)
(0.0669104 -5.32977e-05 5.20616e-20)
(0.0670374 -5.33663e-05 -8.7628e-20)
(0.074892 -5.47103e-05 -1.38112e-19)
(0.0665017 -4.98753e-05 -5.20379e-20)
(0.0667508 -5.07821e-05 1.50797e-21)
(0.0667594 -5.15659e-05 4.25348e-22)
(0.0667726 -5.23767e-05 -8.16481e-20)
(0.0667862 -5.32134e-05 6.2894e-20)
(0.0669131 -5.3282e-05 1.75159e-19)
(0.0747639 -5.20335e-05 -8.65724e-20)
(0.0663852 -4.74009e-05 1.392e-19)
(0.0666322 -4.82674e-05 -3.89054e-21)
(0.0666389 -4.90152e-05 1.70003e-19)
(0.0666503 -4.9789e-05 -1.45894e-19)
(0.0666619 -5.05876e-05 1.249e-19)
(0.0667886 -5.06533e-05 -2.70037e-19)
(0.0746353 -4.19122e-05 -1.14567e-23)
(0.0662684 -3.81531e-05 1.37363e-19)
(0.0665132 -3.88487e-05 -3.86539e-21)
(0.0665181 -3.94494e-05 -3.72274e-22)
(0.0665275 -4.0071e-05 1.43238e-19)
(0.0665372 -4.07124e-05 2.42247e-20)
(0.0666637 -4.07659e-05 1.50895e-19)
(0.0744895 -3.39618e-05 4.59216e-22)
(0.0661682 -3.32146e-05 3.10136e-22)
(0.0663948 -3.27281e-05 -4.44255e-22)
(0.0663984 -3.32703e-05 -5.37475e-22)
(0.066406 -3.37948e-05 -3.99796e-23)
(0.0664137 -3.43368e-05 9.34139e-23)
(0.0665401 -3.43824e-05 -1.11056e-19)
(0.07437 -3.17059e-05 3.02912e-19)
(0.0660409 -2.95345e-05 -8.23621e-21)
(0.0662814 -3.00692e-05 -2.79673e-19)
(0.0662828 -3.05387e-05 -1.11672e-19)
(0.0662886 -3.10247e-05 1.45649e-19)
(0.0664148 -3.10665e-05 -7.97968e-23)
(0.0742614 -3.24844e-05 -1.07314e-19)
(0.0659277 -2.94844e-05 3.04716e-21)
(0.0661665 -3.00275e-05 -1.39354e-19)
(0.0661662 -3.04904e-05 1.4547e-19)
(0.0661702 -3.09694e-05 2.55875e-19)
(0.0662962 -3.10117e-05 -2.91949e-21)
(0.0741235 -3.57144e-05 -1.46555e-19)
(0.0658102 -3.31153e-05 4.01379e-21)
(0.0660466 -3.37012e-05 3.52123e-23)
(0.0660443 -3.42227e-05 2.53936e-19)
(0.0660464 -3.4762e-05 2.7522e-19)
(0.0661722 -3.48094e-05 2.64853e-20)
(0.0738711 -1.70612e-06 -3.63618e-21)
(0.0657035 -4.06759e-05 6.38992e-23)
(0.0659278 -3.97629e-05 -7.8957e-25)
(0.0659241 -4.04038e-05 1.6677e-19)
(0.0659242 -4.10287e-05 -4.77916e-21)
(0.0659243 -4.16739e-05 8.47674e-23)
(0.06605 -4.17318e-05 -1.44422e-19)
)
;

boundaryField
{
    inlet
    {
        type            calculated;
        value           nonuniform List<vector> 0();
    }
    outlet2
    {
        type            calculated;
        value           uniform (0.0741049 0 0);
    }
    outlet1
    {
        type            calculated;
        value           uniform (0.0741049 0 0);
    }
    wall
    {
        type            calculated;
        value           uniform (0.0741049 0 0);
    }
    symmetryBottom
    {
        type            symmetry;
    }
    symmetryZ0
    {
        type            symmetry;
    }
    symmetryZ05
    {
        type            symmetry;
    }
    procBoundary0to1
    {
        type            processor;
        value           uniform (0.0741049 0 0);
    }
}


// ************************************************************************* //
