/*--------------------------------*- C++ -*----------------------------------*\
| =========                 |                                                 |
| \\      /  F ield         | OpenFOAM: The Open Source CFD Toolbox           |
|  \\    /   O peration     | Version:  2412                                  |
|   \\  /    A nd           | Website:  www.openfoam.com                      |
|    \\/     M anipulation  |                                                 |
\*---------------------------------------------------------------------------*/
FoamFile
{
    version     2.0;
    format      ascii;
    arch        "LSB;label=32;scalar=64";
    class       volScalarField;
    location    "9.4e-06";
    object      E;
}
// * * * * * * * * * * * * * * * * * * * * * * * * * * * * * * * * * * * * * //

dimensions      [0 0 0 0 0 0 0];

internalField   nonuniform List<scalar> 
84
(
102.136
51.1749
55.0203
54.8439
54.869
54.8899
54.8564
55.5453
109.472
54.9426
59.1179
58.9922
59.0839
59.1728
59.2126
59.9409
107.966
55.0577
58.6032
58.5279
58.6098
58.692
58.7246
59.4483
106.74
54.1616
58.185
58.053
58.1337
58.1561
58.8748
106.85
53.5877
57.651
57.5078
57.5795
57.5921
58.3058
105.911
53.0973
57.1179
56.9678
57.0306
57.0335
57.7422
104.964
52.6145
56.5895
56.4328
56.4868
56.4802
57.184
103.727
52.3766
56.0426
55.9042
55.9481
55.9323
56.6311
102.675
51.7136
55.5719
55.4072
55.3899
56.0836
102.222
51.1985
55.0517
54.8787
54.8524
55.5413
101.235
50.7297
54.5343
54.3552
54.3201
55.0041
99.387
50.3914
54.0101
53.8325
53.8442
53.7931
54.4725
)
;

boundaryField
{
    inlet
    {
        type            calculated;
        value           nonuniform List<scalar> 0();
    }
    outlet2
    {
        type            calculated;
        value           uniform 0;
    }
    outlet1
    {
        type            calculated;
        value           uniform 0;
    }
    wall
    {
        type            calculated;
        value           uniform 0;
    }
    symmetryBottom
    {
        type            symmetry;
    }
    symmetryZ0
    {
        type            symmetry;
    }
    symmetryZ05
    {
        type            symmetry;
    }
    procBoundary0to1
    {
        type            processor;
        value           uniform 0;
    }
}


// ************************************************************************* //
