/*--------------------------------*- C++ -*----------------------------------*\
| =========                 |                                                 |
| \\      /  F ield         | OpenFOAM: The Open Source CFD Toolbox           |
|  \\    /   O peration     | Version:  2412                                  |
|   \\  /    A nd           | Website:  www.openfoam.com                      |
|    \\/     M anipulation  |                                                 |
\*---------------------------------------------------------------------------*/
FoamFile
{
    version     2.0;
    format      ascii;
    arch        "LSB;label=32;scalar=64";
    class       volScalarField;
    location    "9.4e-06";
    object      rho_dof0;
}
// * * * * * * * * * * * * * * * * * * * * * * * * * * * * * * * * * * * * * //

dimensions      [0 0 0 0 0 0 0];

internalField   nonuniform List<scalar> 
84
(
2.88643e-05
1.4597e-05
1.56616e-05
1.56135e-05
1.56205e-05
1.56264e-05
1.56172e-05
1.58104e-05
3.09131e-05
1.56575e-05
1.68131e-05
1.67793e-05
1.6805e-05
1.683e-05
1.68414e-05
1.70455e-05
3.04943e-05
1.56871e-05
1.66687e-05
1.66486e-05
1.66716e-05
1.66947e-05
1.6704e-05
1.69069e-05
3.01529e-05
1.54369e-05
1.65508e-05
1.65151e-05
1.65377e-05
1.65442e-05
1.67457e-05
3.01809e-05
1.52759e-05
1.64006e-05
1.63619e-05
1.63819e-05
1.63857e-05
1.65857e-05
2.99186e-05
1.51377e-05
1.62507e-05
1.621e-05
1.62276e-05
1.62286e-05
1.64273e-05
2.96543e-05
1.50017e-05
1.61022e-05
1.60596e-05
1.60747e-05
1.6073e-05
1.62704e-05
2.93097e-05
1.49335e-05
1.59485e-05
1.59109e-05
1.59232e-05
1.5919e-05
1.61149e-05
2.90163e-05
1.47476e-05
1.5816e-05
1.57711e-05
1.57664e-05
1.59609e-05
2.88884e-05
1.46027e-05
1.56697e-05
1.56224e-05
1.56152e-05
1.58084e-05
2.8613e-05
1.44706e-05
1.55241e-05
1.54752e-05
1.54655e-05
1.56573e-05
2.80963e-05
1.43746e-05
1.53768e-05
1.53281e-05
1.53313e-05
1.53172e-05
1.55078e-05
)
;

boundaryField
{
    inlet
    {
        type            calculated;
        value           nonuniform List<scalar> 0();
    }
    outlet2
    {
        type            calculated;
        value           uniform 2.81085e-05;
    }
    outlet1
    {
        type            calculated;
        value           uniform 2.81085e-05;
    }
    wall
    {
        type            calculated;
        value           uniform 2.81085e-05;
    }
    symmetryBottom
    {
        type            symmetry;
    }
    symmetryZ0
    {
        type            symmetry;
    }
    symmetryZ05
    {
        type            symmetry;
    }
    procBoundary0to1
    {
        type            processor;
        value           uniform 2.81085e-05;
    }
}


// ************************************************************************* //
