/*--------------------------------*- C++ -*----------------------------------*\
| =========                 |                                                 |
| \\      /  F ield         | OpenFOAM: The Open Source CFD Toolbox           |
|  \\    /   O peration     | Version:  2412                                  |
|   \\  /    A nd           | Website:  www.openfoam.com                      |
|    \\/     M anipulation  |                                                 |
\*---------------------------------------------------------------------------*/
FoamFile
{
    version     2.0;
    format      ascii;
    arch        "LSB;label=32;scalar=64";
    class       volScalarField;
    location    "9.4e-06";
    object      T;
}
// * * * * * * * * * * * * * * * * * * * * * * * * * * * * * * * * * * * * * //

dimensions      [0 0 0 0 0 0 0];

internalField   nonuniform List<scalar> 
84
(
203.536
203.513
203.678
203.723
203.781
203.84
203.906
203.896
199.999
199.897
200.01
199.999
200
200
199.999
200.002
199.97
199.895
200.004
199.995
199.995
199.995
199.994
199.997
200.005
199.893
200.006
199.995
199.996
199.995
199.997
199.993
199.89
200.006
199.995
199.996
199.994
199.997
199.997
199.89
200.006
199.995
199.996
199.994
199.997
199.995
199.893
200.006
199.995
199.996
199.994
199.997
199.971
199.884
200.006
199.995
199.996
199.994
199.997
200.009
199.889
200.006
199.995
199.994
199.997
199.991
199.89
200.006
199.995
199.994
199.997
200.002
199.887
200.006
199.995
199.994
199.997
199.972
199.86
200.008
199.995
199.996
199.995
199.998
)
;

boundaryField
{
    inlet
    {
        type            calculated;
        value           nonuniform List<scalar> 0();
    }
    outlet2
    {
        type            calculated;
        value           uniform 0;
    }
    outlet1
    {
        type            calculated;
        value           uniform 0;
    }
    wall
    {
        type            calculated;
        value           uniform 0;
    }
    symmetryBottom
    {
        type            symmetry;
    }
    symmetryZ0
    {
        type            symmetry;
    }
    symmetryZ05
    {
        type            symmetry;
    }
    procBoundary0to1
    {
        type            processor;
        value           uniform 0;
    }
}


// ************************************************************************* //
