/*--------------------------------*- C++ -*----------------------------------*\
| =========                 |                                                 |
| \\      /  F ield         | OpenFOAM: The Open Source CFD Toolbox           |
|  \\    /   O peration     | Version:  2412                                  |
|   \\  /    A nd           | Website:  www.openfoam.com                      |
|    \\/     M anipulation  |                                                 |
\*---------------------------------------------------------------------------*/
FoamFile
{
    version     2.0;
    format      ascii;
    arch        "LSB;label=32;scalar=64";
    class       volScalarField;
    location    "1e-06";
    object      rho_dof0;
}
// * * * * * * * * * * * * * * * * * * * * * * * * * * * * * * * * * * * * * //

dimensions      [0 0 0 0 0 0 0];

internalField   nonuniform List<scalar> 
84
(
2.81086e-05
2.38185e-05
2.3971e-05
2.81088e-05
2.38195e-05
2.3972e-05
2.81088e-05
2.38195e-05
2.39719e-05
2.81088e-05
2.38195e-05
2.39719e-05
2.81088e-05
2.38195e-05
2.39719e-05
2.81088e-05
2.38195e-05
2.39719e-05
2.81088e-05
2.38195e-05
2.39719e-05
2.81088e-05
2.38195e-05
2.39719e-05
2.81088e-05
2.38195e-05
2.39719e-05
2.81088e-05
2.38195e-05
2.39719e-05
2.81088e-05
2.38195e-05
2.39719e-05
2.81088e-05
2.38191e-05
2.39716e-05
2.63912e-05
2.63546e-05
2.63792e-05
2.6627e-05
2.659e-05
2.66148e-05
2.66027e-05
2.65658e-05
2.65906e-05
2.65785e-05
2.65417e-05
2.65448e-05
2.63471e-05
2.65544e-05
2.65175e-05
2.65203e-05
2.6545e-05
2.65302e-05
2.64934e-05
2.64958e-05
2.65205e-05
2.65061e-05
2.64693e-05
2.64713e-05
2.64961e-05
2.6482e-05
2.64452e-05
2.6447e-05
2.64717e-05
2.64578e-05
2.64211e-05
2.64224e-05
2.64235e-05
2.63487e-05
2.64341e-05
2.63974e-05
2.63984e-05
2.63991e-05
2.64241e-05
2.64099e-05
2.63732e-05
2.63739e-05
2.63743e-05
2.64001e-05
2.63859e-05
2.63492e-05
2.63495e-05
2.63742e-05
)
;

boundaryField
{
    inlet
    {
        type            calculated;
        value           uniform 2.81085e-05;
    }
    outlet2
    {
        type            calculated;
        value           uniform 2.81085e-05;
    }
    outlet1
    {
        type            calculated;
        value           nonuniform List<scalar> 0();
    }
    wall
    {
        type            calculated;
        value           uniform 2.81085e-05;
    }
    symmetryBottom
    {
        type            symmetry;
    }
    symmetryZ0
    {
        type            symmetry;
    }
    symmetryZ05
    {
        type            symmetry;
    }
    procBoundary1to0
    {
        type            processor;
        value           uniform 2.81085e-05;
    }
}


// ************************************************************************* //
