/*--------------------------------*- C++ -*----------------------------------*\
| =========                 |                                                 |
| \\      /  F ield         | OpenFOAM: The Open Source CFD Toolbox           |
|  \\    /   O peration     | Version:  2412                                  |
|   \\  /    A nd           | Website:  www.openfoam.com                      |
|    \\/     M anipulation  |                                                 |
\*---------------------------------------------------------------------------*/
FoamFile
{
    version     2.0;
    format      ascii;
    arch        "LSB;label=32;scalar=64";
    class       volVectorField;
    location    "1e-06";
    object      rhoU;
}
// * * * * * * * * * * * * * * * * * * * * * * * * * * * * * * * * * * * * * //

dimensions      [0 0 0 0 0 0 0];

internalField   nonuniform List<vector> 
84
(
(0.0741051 -1.54112e-08 0)
(0.0627293 -1.07633e-07 0)
(0.0631361 -1.0169e-07 -3.43477e-20)
(0.0741058 -2.70451e-05 0)
(0.0627322 -2.41751e-05 0)
(0.0631388 -2.42771e-05 -3.12252e-20)
(0.0741056 -2.70252e-05 0)
(0.062732 -2.41579e-05 0)
(0.0631387 -2.42598e-05 5.3083e-20)
(0.0741056 -2.70252e-05 0)
(0.062732 -2.41579e-05 0)
(0.0631387 -2.42598e-05 -7.02587e-20)
(0.0741056 -2.70252e-05 0)
(0.062732 -2.41579e-05 0)
(0.0631387 -2.42598e-05 -1.18657e-19)
(0.0741056 -2.70252e-05 0)
(0.062732 -2.41579e-05 0)
(0.0631387 -2.42598e-05 6.71344e-20)
(0.0741056 -2.70252e-05 0)
(0.062732 -2.41579e-05 0)
(0.0631387 -2.42598e-05 -8.43101e-20)
(0.0741056 -2.70252e-05 0)
(0.062732 -2.41579e-05 0)
(0.0631387 -2.42598e-05 -9.99218e-20)
(0.0741056 -2.70252e-05 0)
(0.062732 -2.41579e-05 0)
(0.0631387 -2.42598e-05 3.59088e-20)
(0.0741056 -2.70252e-05 0)
(0.062732 -2.41579e-05 0)
(0.0631387 -2.42598e-05 -8.4311e-20)
(0.0741056 -2.70252e-05 0)
(0.062732 -2.41578e-05 0)
(0.0631387 -2.42597e-05 -2.13896e-19)
(0.0741056 -2.7029e-05 0)
(0.0627311 -2.40676e-05 0)
(0.0631378 -2.41755e-05 0)
(0.0695467 2.72888e-05 5.10296e-22)
(0.069449 2.72513e-05 2.96783e-20)
(0.0695143 2.72732e-05 2.79958e-21)
(0.0701768 -2.71676e-05 4.5479e-22)
(0.0700782 -2.75186e-05 2.96911e-20)
(0.070144 -2.75348e-05 -9.90131e-23)
(0.0701126 -2.71478e-05 -7.83561e-22)
(0.0700141 -2.74983e-05 -1.29425e-20)
(0.0700797 -2.7511e-05 -6.02825e-20)
(0.0700484 -2.71278e-05 1.03623e-21)
(0.06995 -2.74781e-05 -4.71973e-22)
(0.0699582 -2.78713e-05 6.28455e-24)
(0.069434 2.51998e-07 4.24152e-20)
(0.0699843 -2.71079e-05 -1.72694e-20)
(0.0698859 -2.74579e-05 -2.06496e-22)
(0.0698933 -2.78506e-05 -4.6513e-22)
(0.0699589 -2.78669e-05 4.12147e-20)
(0.0699201 -2.56965e-05 -9.85935e-22)
(0.0698218 -2.60485e-05 -3.0953e-20)
(0.0698282 -2.64216e-05 -4.12797e-22)
(0.0698938 -2.64373e-05 2.78928e-20)
(0.0698557 -2.06323e-05 1.05225e-21)
(0.0697575 -2.09889e-05 -3.26306e-23)
(0.069763 -2.12886e-05 -2.21912e-22)
(0.0698286 -2.13015e-05 -2.37646e-22)
(0.0697917 -1.7325e-05 1.67979e-21)
(0.0696936 -1.76847e-05 -2.81779e-20)
(0.0696982 -1.79369e-05 3.07525e-20)
(0.0697637 -1.79455e-05 2.02353e-22)
(0.0697275 -1.56965e-05 -5.11581e-22)
(0.0696295 -1.60567e-05 -4.48997e-20)
(0.0696331 -1.62846e-05 -4.64125e-20)
(0.0696359 -1.65203e-05 4.71835e-20)
(0.0694382 2.75882e-07 3.17058e-19)
(0.0696649 -1.57701e-05 1.36755e-21)
(0.069567 -1.61288e-05 -4.63722e-20)
(0.0695697 -1.63563e-05 2.81789e-20)
(0.0695716 -1.65916e-05 7.50842e-20)
(0.0696378 -1.6616e-05 4.72277e-20)
(0.069601 -1.77189e-05 3.37322e-21)
(0.0695032 -1.80752e-05 -2.29694e-23)
(0.069505 -1.83309e-05 5.83091e-23)
(0.069506 -1.85975e-05 7.17114e-24)
(0.0695744 -1.87789e-05 -4.17112e-20)
(0.0695374 -2.13485e-05 3.35023e-23)
(0.0694396 -2.1698e-05 4.51223e-20)
(0.0694406 -2.20055e-05 -6.29015e-22)
(0.0695059 -2.20183e-05 -7.42595e-20)
)
;

boundaryField
{
    inlet
    {
        type            calculated;
        value           uniform (0 0 0);
    }
    outlet2
    {
        type            calculated;
        value           uniform (0 0 0);
    }
    outlet1
    {
        type            calculated;
        value           nonuniform List<vector> 0();
    }
    wall
    {
        type            calculated;
        value           uniform (0 0 0);
    }
    symmetryBottom
    {
        type            symmetry;
    }
    symmetryZ0
    {
        type            symmetry;
    }
    symmetryZ05
    {
        type            symmetry;
    }
    procBoundary1to0
    {
        type            processor;
        value           uniform (0 0 0);
    }
}


// ************************************************************************* //
