/*--------------------------------*- C++ -*----------------------------------*\
| =========                 |                                                 |
| \\      /  F ield         | OpenFOAM: The Open Source CFD Toolbox           |
|  \\    /   O peration     | Version:  2412                                  |
|   \\  /    A nd           | Website:  www.openfoam.com                      |
|    \\/     M anipulation  |                                                 |
\*---------------------------------------------------------------------------*/
FoamFile
{
    version     2.0;
    format      ascii;
    arch        "LSB;label=32;scalar=64";
    class       volScalarField;
    location    "7.4e-06";
    object      E_dof0;
}
// * * * * * * * * * * * * * * * * * * * * * * * * * * * * * * * * * * * * * //

dimensions      [0 0 0 0 0 0 0];

internalField   nonuniform List<scalar> 
84
(
95.7463
57.1736
61.8663
61.4945
61.5223
61.5267
61.5325
62.0653
102.408
61.2601
66.3309
66.003
66.1026
66.1795
66.2602
66.8237
101.029
61.4957
65.7531
65.5309
65.6129
65.6823
65.7545
66.3149
100.54
60.4794
65.4396
65.1043
65.1899
65.2527
65.8098
100.39
59.9969
64.9647
64.6214
64.699
64.7536
65.3076
99.6829
59.5622
64.4887
64.1404
64.2099
64.2563
64.8072
98.9882
59.1413
64.023
63.6706
63.7322
63.7706
64.3183
97.9645
59.1012
63.5166
63.2205
63.2694
63.3006
63.8453
97.4092
58.3873
63.1701
62.8104
62.858
63.3988
96.8805
57.8508
62.6128
62.2466
62.2855
62.8224
96.0443
57.4633
62.156
61.7874
61.8182
62.3522
94.7628
57.2329
61.6872
61.3402
61.3618
61.3622
61.8944
)
;

boundaryField
{
    inlet
    {
        type            calculated;
        value           nonuniform List<scalar> 0();
    }
    outlet2
    {
        type            calculated;
        value           uniform 99.4306;
    }
    outlet1
    {
        type            calculated;
        value           uniform 99.4306;
    }
    wall
    {
        type            calculated;
        value           uniform 99.4306;
    }
    symmetryBottom
    {
        type            symmetry;
    }
    symmetryZ0
    {
        type            symmetry;
    }
    symmetryZ05
    {
        type            symmetry;
    }
    procBoundary0to1
    {
        type            processor;
        value           uniform 99.4306;
    }
}


// ************************************************************************* //
