/*--------------------------------*- C++ -*----------------------------------*\
| =========                 |                                                 |
| \\      /  F ield         | OpenFOAM: The Open Source CFD Toolbox           |
|  \\    /   O peration     | Version:  2412                                  |
|   \\  /    A nd           | Website:  www.openfoam.com                      |
|    \\/     M anipulation  |                                                 |
\*---------------------------------------------------------------------------*/
FoamFile
{
    version     2.0;
    format      ascii;
    arch        "LSB;label=32;scalar=64";
    class       volScalarField;
    location    "7.4e-06";
    object      rho_dof0;
}
// * * * * * * * * * * * * * * * * * * * * * * * * * * * * * * * * * * * * * //

dimensions      [0 0 0 0 0 0 0];

internalField   nonuniform List<scalar> 
84
(
2.71084e-05
1.62966e-05
1.75969e-05
1.74953e-05
1.75031e-05
1.75045e-05
1.75064e-05
1.76559e-05
2.89529e-05
1.74342e-05
1.88377e-05
1.87485e-05
1.87762e-05
1.87978e-05
1.88204e-05
1.89784e-05
2.85691e-05
1.74973e-05
1.86762e-05
1.86159e-05
1.86387e-05
1.86582e-05
1.86785e-05
1.88356e-05
2.84323e-05
1.72143e-05
1.85875e-05
1.84962e-05
1.852e-05
1.85376e-05
1.86938e-05
2.8389e-05
1.70789e-05
1.84542e-05
1.83606e-05
1.83821e-05
1.83975e-05
1.85528e-05
2.81904e-05
1.69563e-05
1.83201e-05
1.8225e-05
1.82443e-05
1.82574e-05
1.84118e-05
2.79907e-05
1.68353e-05
1.81862e-05
1.809e-05
1.8107e-05
1.81177e-05
1.82713e-05
2.76987e-05
1.68193e-05
1.80404e-05
1.79596e-05
1.7973e-05
1.79817e-05
1.81344e-05
2.75165e-05
1.66007e-05
1.79221e-05
1.78235e-05
1.7836e-05
1.79875e-05
2.74299e-05
1.64866e-05
1.7807e-05
1.77069e-05
1.77179e-05
1.78686e-05
2.718e-05
1.63693e-05
1.76693e-05
1.75684e-05
1.7577e-05
1.77268e-05
2.68156e-05
1.63027e-05
1.75353e-05
1.74405e-05
1.74464e-05
1.74465e-05
1.75958e-05
)
;

boundaryField
{
    inlet
    {
        type            calculated;
        value           nonuniform List<scalar> 0();
    }
    outlet2
    {
        type            calculated;
        value           uniform 2.81085e-05;
    }
    outlet1
    {
        type            calculated;
        value           uniform 2.81085e-05;
    }
    wall
    {
        type            calculated;
        value           uniform 2.81085e-05;
    }
    symmetryBottom
    {
        type            symmetry;
    }
    symmetryZ0
    {
        type            symmetry;
    }
    symmetryZ05
    {
        type            symmetry;
    }
    procBoundary0to1
    {
        type            processor;
        value           uniform 2.81085e-05;
    }
}


// ************************************************************************* //
