/*--------------------------------*- C++ -*----------------------------------*\
| =========                 |                                                 |
| \\      /  F ield         | OpenFOAM: The Open Source CFD Toolbox           |
|  \\    /   O peration     | Version:  2412                                  |
|   \\  /    A nd           | Website:  www.openfoam.com                      |
|    \\/     M anipulation  |                                                 |
\*---------------------------------------------------------------------------*/
FoamFile
{
    version     2.0;
    format      ascii;
    arch        "LSB;label=32;scalar=64";
    class       volVectorField;
    location    "7.4e-06";
    object      rhoU_dof0;
}
// * * * * * * * * * * * * * * * * * * * * * * * * * * * * * * * * * * * * * //

dimensions      [0 0 0 0 0 0 0];

internalField   nonuniform List<vector> 
84
(
(0.0713979 0.000203561 2.09677e-19)
(0.0427752 0.000124677 -1.97838e-19)
(0.0462377 0.00013637 -3.11651e-19)
(0.045965 0.000137537 2.09089e-19)
(0.0459854 0.000139594 -3.64696e-20)
(0.0459888 0.000141662 2.822e-20)
(0.0459932 0.000143795 2.99575e-19)
(0.0463888 0.000144746 2.9121e-20)
(0.076327 -0.000224883 2.08727e-19)
(0.0458069 -0.00014049 -1.96569e-19)
(0.0495472 -0.000152697 -4.15762e-19)
(0.0493074 -0.000154423 6.21831e-20)
(0.049381 -0.000157 -7.74458e-19)
(0.0494382 -0.00015962 2.13207e-19)
(0.0494981 -0.000162331 6.36192e-19)
(0.0499163 -0.000163334 1.11691e-19)
(0.0753073 -0.00019794 -8.127e-19)
(0.045978 -0.000163416 1.72865e-19)
(0.0491191 -0.000148091 2.1937e-19)
(0.0489567 -0.000153646 -3.45866e-20)
(0.0490174 -0.000155864 -1.2649e-20)
(0.0490689 -0.000158468 3.00582e-19)
(0.0491225 -0.000161139 -2.5812e-19)
(0.0495385 -0.000162138 -2.82463e-19)
(0.0749448 -0.000206114 -7.7199e-19)
(0.0452262 -0.000141828 3.63554e-19)
(0.0488853 -0.000152989 -4.86301e-20)
(0.0486399 -0.000154731 -6.89789e-19)
(0.0487031 -0.000157325 7.05745e-19)
(0.0487498 -0.000159957 1.05324e-19)
(0.0491634 -0.000160951 -2.59906e-19)
(0.0748318 -0.000224431 -4.55331e-19)
(0.0448679 -0.00013931 -1.11219e-19)
(0.0485325 -0.000152066 1.64349e-20)
(0.0482811 -0.000153683 4.95679e-21)
(0.0483385 -0.000156247 -2.33233e-19)
(0.048379 -0.000158844 2.13396e-19)
(0.0487903 -0.000159833 4.41276e-19)
(0.0743045 -0.000216436 -3.01274e-19)
(0.0445429 -0.000134041 3.7778e-19)
(0.048177 -0.000146455 -5.0897e-20)
(0.0479219 -0.000148047 4.48302e-19)
(0.0479732 -0.000150563 -4.21919e-19)
(0.0480076 -0.000153114 3.53359e-19)
(0.0484166 -0.000154069 -7.39011e-19)
(0.0737713 -0.000172794 -1.26072e-22)
(0.0442197 -0.000107385 3.41397e-19)
(0.0478195 -0.000117003 -4.80157e-20)
(0.0475612 -0.000118302 2.62606e-21)
(0.0476064 -0.000120291 3.66465e-19)
(0.0476347 -0.00012231 3.47584e-20)
(0.0480412 -0.000123076 3.6132e-19)
(0.0729954 -0.000124978 8.79169e-21)
(0.0441768 -0.000110064 6.95603e-21)
(0.0474316 -9.66256e-05 -2.51068e-21)
(0.0472144 -0.000100802 -6.44315e-21)
(0.0472501 -0.000102253 -1.19735e-21)
(0.0472728 -0.000104004 3.20514e-21)
(0.0476771 -0.000104652 -2.81962e-19)
(0.0725083 -0.000119528 1.10849e-18)
(0.0435932 -8.19136e-05 -1.28107e-19)
(0.0471146 -8.85027e-05 -7.60275e-19)
(0.0468498 -8.94797e-05 -2.08272e-19)
(0.0468831 -9.09666e-05 4.26814e-19)
(0.0472841 -9.15421e-05 -6.57452e-20)
(0.0722854 -0.000126254 -3.85236e-19)
(0.0433033 -7.7856e-05 4.56482e-20)
(0.0468204 -8.50508e-05 -3.49562e-19)
(0.0465521 -8.58618e-05 3.97059e-19)
(0.0465814 -8.72131e-05 6.50472e-19)
(0.0469802 -8.77764e-05 -8.56684e-20)
(0.0716251 -0.000131151 -4.7082e-19)
(0.042992 -9.02512e-05 6.1018e-20)
(0.0464554 -9.63775e-05 -3.76396e-21)
(0.046185 -9.75001e-05 6.75044e-19)
(0.0462078 -9.90506e-05 6.71069e-19)
(0.0466044 -9.96867e-05 1.69467e-20)
(0.0706613 -2.2853e-05 -4.37732e-20)
(0.0428163 -0.000126588 3.79567e-21)
(0.0461016 -0.000110786 -2.31825e-22)
(0.0458472 -0.000114346 4.16178e-19)
(0.045863 -0.000115954 -5.69426e-20)
(0.0458634 -0.000117762 4.82796e-21)
(0.0462586 -0.000118525 -3.39829e-19)
)
;

boundaryField
{
    inlet
    {
        type            calculated;
        value           nonuniform List<vector> 0();
    }
    outlet2
    {
        type            calculated;
        value           uniform (0.0741049 0 0);
    }
    outlet1
    {
        type            calculated;
        value           uniform (0.0741049 0 0);
    }
    wall
    {
        type            calculated;
        value           uniform (0.0741049 0 0);
    }
    symmetryBottom
    {
        type            symmetry;
    }
    symmetryZ0
    {
        type            symmetry;
    }
    symmetryZ05
    {
        type            symmetry;
    }
    procBoundary0to1
    {
        type            processor;
        value           uniform (0.0741049 0 0);
    }
}


// ************************************************************************* //
