/*--------------------------------*- C++ -*----------------------------------*\
| =========                 |                                                 |
| \\      /  F ield         | OpenFOAM: The Open Source CFD Toolbox           |
|  \\    /   O peration     | Version:  2412                                  |
|   \\  /    A nd           | Website:  www.openfoam.com                      |
|    \\/     M anipulation  |                                                 |
\*---------------------------------------------------------------------------*/
FoamFile
{
    version     2.0;
    format      ascii;
    arch        "LSB;label=32;scalar=64";
    class       volVectorField;
    location    "7.4e-06";
    object      U;
}
// * * * * * * * * * * * * * * * * * * * * * * * * * * * * * * * * * * * * * //

dimensions      [0 0 0 0 0 0 0];

internalField   nonuniform List<vector> 
84
(
(2633.8 7.50916 7.73479e-15)
(2624.79 7.65045 -1.21398e-14)
(2627.6 7.74963 -1.77105e-14)
(2627.28 7.86134 1.19511e-14)
(2627.28 7.97541 -2.08361e-15)
(2627.25 8.09289 1.61215e-15)
(2627.23 8.21385 1.71124e-14)
(2627.39 8.19816 1.64936e-15)
(2636.25 -7.76722 7.20918e-15)
(2627.42 -8.05834 -1.12749e-14)
(2630.22 -8.10593 -2.20707e-14)
(2629.94 -8.23657 3.3167e-15)
(2629.98 -8.36168 -4.12469e-14)
(2630 -8.49143 1.13421e-14)
(2630.02 -8.62523 3.38033e-14)
(2630.17 -8.60631 5.88518e-15)
(2635.97 -6.92849 -2.84469e-14)
(2627.72 -9.3395 9.87955e-15)
(2630.03 -7.92939 1.17459e-14)
(2629.84 -8.25352 -1.85791e-15)
(2629.87 -8.36239 -6.78642e-16)
(2629.88 -8.49318 1.61099e-14)
(2629.9 -8.62699 -1.38191e-14)
(2630.05 -8.60805 -1.49962e-14)
(2635.9 -7.24931 -2.71519e-14)
(2627.24 -8.23892 2.11193e-14)
(2630.01 -8.23071 -2.61627e-15)
(2629.73 -8.36558 -3.72936e-14)
(2629.76 -8.49487 3.81073e-14)
(2629.78 -8.62881 5.68166e-15)
(2629.93 -8.60985 -1.39033e-14)
(2635.94 -7.90556 -1.6039e-14)
(2627.09 -8.15682 -6.51208e-15)
(2629.89 -8.24022 8.90582e-16)
(2629.61 -8.37028 2.69969e-16)
(2629.65 -8.49994 -1.2688e-14)
(2629.66 -8.63403 1.15992e-14)
(2629.81 -8.61504 2.37849e-14)
(2635.81 -7.67763 -1.06871e-14)
(2626.93 -7.90508 2.22796e-14)
(2629.74 -7.99423 -2.77821e-15)
(2629.45 -8.12327 2.45981e-14)
(2629.49 -8.25261 -2.31261e-14)
(2629.5 -8.38645 1.93543e-14)
(2629.65 -8.36792 -4.01378e-14)
(2635.56 -6.17327 -4.50408e-18)
(2626.61 -6.37859 2.02787e-14)
(2629.44 -6.4336 -2.64023e-15)
(2629.14 -6.53962 1.45166e-16)
(2629.17 -6.64332 2.02389e-14)
(2629.17 -6.75083 1.91847e-15)
(2629.33 -6.736 1.97752e-14)
(2635.34 -4.51206 3.17405e-16)
(2626.56 -6.54393 4.13575e-16)
(2629.18 -5.35606 -1.39169e-16)
(2628.92 -5.61272 -3.58757e-16)
(2628.94 -5.68926 -6.66192e-17)
(2628.95 -5.78389 1.78245e-16)
(2629.1 -5.77092 -1.55485e-14)
(2635.09 -4.34387 4.02845e-14)
(2625.98 -4.93433 -7.71697e-15)
(2628.86 -4.93819 -4.24211e-14)
(2628.54 -5.02033 -1.16853e-14)
(2628.56 -5.10016 2.39299e-14)
(2628.72 -5.0892 -3.65505e-15)
(2635.28 -4.6028 -1.40444e-14)
(2626.57 -4.72237 2.7688e-15)
(2629.32 -4.77624 -1.96306e-14)
(2629.03 -4.84904 2.24239e-14)
(2629.06 -4.92232 3.67127e-14)
(2629.21 -4.91233 -4.79435e-15)
(2635.21 -4.82527 -1.73223e-14)
(2626.38 -5.51343 3.72758e-15)
(2629.16 -5.45452 -2.13023e-16)
(2628.86 -5.54973 3.84237e-14)
(2628.89 -5.63526 3.81789e-14)
(2629.04 -5.6235 9.55994e-16)
(2635.08 -0.852225 -1.63238e-15)
(2626.33 -7.76483 2.32824e-16)
(2629.07 -6.31785 -1.32205e-17)
(2628.78 -6.55637 2.38627e-14)
(2628.8 -6.64631 -3.26387e-15)
(2628.8 -6.74987 2.76729e-16)
(2628.95 -6.736 -1.9313e-14)
)
;

boundaryField
{
    inlet
    {
        type            calculated;
        value           nonuniform List<vector> 0();
    }
    outlet2
    {
        type            calculated;
        value           uniform (0 0 0);
    }
    outlet1
    {
        type            calculated;
        value           uniform (0 0 0);
    }
    wall
    {
        type            calculated;
        value           uniform (0 0 0);
    }
    symmetryBottom
    {
        type            symmetry;
    }
    symmetryZ0
    {
        type            symmetry;
    }
    symmetryZ05
    {
        type            symmetry;
    }
    procBoundary0to1
    {
        type            processor;
        value           uniform (0 0 0);
    }
}


// ************************************************************************* //
