/*--------------------------------*- C++ -*----------------------------------*\
| =========                 |                                                 |
| \\      /  F ield         | OpenFOAM: The Open Source CFD Toolbox           |
|  \\    /   O peration     | Version:  2412                                  |
|   \\  /    A nd           | Website:  www.openfoam.com                      |
|    \\/     M anipulation  |                                                 |
\*---------------------------------------------------------------------------*/
FoamFile
{
    version     2.0;
    format      ascii;
    arch        "LSB;label=32;scalar=64";
    class       volScalarField;
    location    "9.3e-06";
    object      E_dof0;
}
// * * * * * * * * * * * * * * * * * * * * * * * * * * * * * * * * * * * * * //

dimensions      [0 0 0 0 0 0 0];

internalField   nonuniform List<scalar> 
84
(
118.998
7.01602
16.9729
119.039
7.1015
16.2797
119.065
7.09463
16.3691
119.066
7.08443
16.4594
119.067
7.07426
16.5497
119.068
7.06413
16.6393
119.069
7.05404
16.7285
119.069
7.044
16.8172
119.07
7.03399
16.9054
119.071
7.02403
16.9931
119.072
7.01407
17.0802
119.074
7.00404
17.1668
58.6843
55.0384
52.2596
62.9024
58.8569
55.8743
62.4218
58.4206
55.5152
61.8786
57.7711
58.619
49.4874
61.3338
57.2998
57.7171
54.5039
60.7943
56.8139
57.2114
54.1044
60.2593
56.3316
56.7166
53.6402
59.7288
55.8535
56.225
53.2022
59.2027
55.3834
55.6042
55.9359
50.2519
58.6812
54.9129
55.1325
55.2672
52.2631
58.164
54.4466
54.6565
54.7766
51.8742
57.6516
53.9811
54.3028
51.4434
)
;

boundaryField
{
    inlet
    {
        type            calculated;
        value           uniform 99.4306;
    }
    outlet2
    {
        type            calculated;
        value           uniform 99.4306;
    }
    outlet1
    {
        type            calculated;
        value           nonuniform List<scalar> 0();
    }
    wall
    {
        type            calculated;
        value           uniform 99.4306;
    }
    symmetryBottom
    {
        type            symmetry;
    }
    symmetryZ0
    {
        type            symmetry;
    }
    symmetryZ05
    {
        type            symmetry;
    }
    procBoundary1to0
    {
        type            processor;
        value           uniform 99.4306;
    }
}


// ************************************************************************* //
