/*--------------------------------*- C++ -*----------------------------------*\
| =========                 |                                                 |
| \\      /  F ield         | OpenFOAM: The Open Source CFD Toolbox           |
|  \\    /   O peration     | Version:  2412                                  |
|   \\  /    A nd           | Website:  www.openfoam.com                      |
|    \\/     M anipulation  |                                                 |
\*---------------------------------------------------------------------------*/
FoamFile
{
    version     2.0;
    format      ascii;
    arch        "LSB;label=32;scalar=64";
    class       volScalarField;
    location    "7e-07";
    object      E_dof0;
}
// * * * * * * * * * * * * * * * * * * * * * * * * * * * * * * * * * * * * * //

dimensions      [0 0 0 0 0 0 0];

internalField   nonuniform List<scalar> 
84
(
99.4583
94.9445
94.9898
94.9897
94.9899
94.99
94.9902
95.0598
100.108
95.5779
95.6328
95.6424
95.6526
95.6631
95.6739
95.7438
100.036
95.5178
95.5675
95.5762
95.5853
95.5947
95.6045
95.6743
99.9796
95.4569
95.5102
95.518
95.5264
95.5351
95.6049
99.9186
95.3917
95.444
95.4508
95.4581
95.4657
95.5355
99.8524
95.327
95.3783
95.3841
95.3904
95.3969
95.4667
99.7875
95.2637
95.314
95.3189
95.3241
95.3296
95.3993
99.7196
95.2033
95.2502
95.2541
95.2583
95.2627
95.3324
99.6666
95.1481
95.1966
95.1997
95.2032
95.2729
99.5816
95.062
95.1092
95.1109
95.113
95.1826
99.5178
95.001
95.0472
95.048
95.0491
95.1187
99.3854
94.938
94.9814
94.9812
94.9812
94.9812
95.0508
)
;

boundaryField
{
    inlet
    {
        type            calculated;
        value           nonuniform List<scalar> 0();
    }
    outlet2
    {
        type            calculated;
        value           uniform 99.4306;
    }
    outlet1
    {
        type            calculated;
        value           uniform 99.4306;
    }
    wall
    {
        type            calculated;
        value           uniform 99.4306;
    }
    symmetryBottom
    {
        type            symmetry;
    }
    symmetryZ0
    {
        type            symmetry;
    }
    symmetryZ05
    {
        type            symmetry;
    }
    procBoundary0to1
    {
        type            processor;
        value           uniform 99.4306;
    }
}


// ************************************************************************* //
