/*--------------------------------*- C++ -*----------------------------------*\
| =========                 |                                                 |
| \\      /  F ield         | OpenFOAM: The Open Source CFD Toolbox           |
|  \\    /   O peration     | Version:  2412                                  |
|   \\  /    A nd           | Website:  www.openfoam.com                      |
|    \\/     M anipulation  |                                                 |
\*---------------------------------------------------------------------------*/
FoamFile
{
    version     2.0;
    format      ascii;
    arch        "LSB;label=32;scalar=64";
    class       volScalarField;
    location    "7e-07";
    object      rho;
}
// * * * * * * * * * * * * * * * * * * * * * * * * * * * * * * * * * * * * * //

dimensions      [0 0 0 0 0 0 0];

internalField   nonuniform List<scalar> 
84
(
2.81182e-05
2.68567e-05
2.68692e-05
2.68692e-05
2.68693e-05
2.68694e-05
2.68694e-05
2.68889e-05
2.82979e-05
2.7032e-05
2.70472e-05
2.70499e-05
2.70527e-05
2.70556e-05
2.70586e-05
2.70782e-05
2.82778e-05
2.70152e-05
2.70289e-05
2.70313e-05
2.70339e-05
2.70365e-05
2.70392e-05
2.70588e-05
2.8262e-05
2.69982e-05
2.70129e-05
2.70151e-05
2.70174e-05
2.70198e-05
2.70394e-05
2.8245e-05
2.69799e-05
2.69944e-05
2.69963e-05
2.69983e-05
2.70005e-05
2.702e-05
2.82264e-05
2.69617e-05
2.69759e-05
2.69775e-05
2.69793e-05
2.69811e-05
2.70006e-05
2.82077e-05
2.69435e-05
2.69574e-05
2.69588e-05
2.69602e-05
2.69617e-05
2.69812e-05
2.81882e-05
2.6926e-05
2.6939e-05
2.69401e-05
2.69412e-05
2.69424e-05
2.69619e-05
2.81707e-05
2.6908e-05
2.69213e-05
2.69221e-05
2.69231e-05
2.69425e-05
2.81529e-05
2.68897e-05
2.69028e-05
2.69033e-05
2.69039e-05
2.69234e-05
2.81336e-05
2.68713e-05
2.6884e-05
2.68843e-05
2.68846e-05
2.6904e-05
2.8096e-05
2.68533e-05
2.68653e-05
2.68652e-05
2.68652e-05
2.68653e-05
2.68847e-05
)
;

boundaryField
{
    inlet
    {
        type            calculated;
        value           nonuniform List<scalar> 0();
    }
    outlet2
    {
        type            calculated;
        value           uniform 0;
    }
    outlet1
    {
        type            calculated;
        value           uniform 0;
    }
    wall
    {
        type            calculated;
        value           uniform 0;
    }
    symmetryBottom
    {
        type            symmetry;
    }
    symmetryZ0
    {
        type            symmetry;
    }
    symmetryZ05
    {
        type            symmetry;
    }
    procBoundary0to1
    {
        type            processor;
        value           uniform 0;
    }
}


// ************************************************************************* //
