/*--------------------------------*- C++ -*----------------------------------*\
| =========                 |                                                 |
| \\      /  F ield         | OpenFOAM: The Open Source CFD Toolbox           |
|  \\    /   O peration     | Version:  2412                                  |
|   \\  /    A nd           | Website:  www.openfoam.com                      |
|    \\/     M anipulation  |                                                 |
\*---------------------------------------------------------------------------*/
FoamFile
{
    version     2.0;
    format      ascii;
    arch        "LSB;label=32;scalar=64";
    class       volVectorField;
    location    "5.3e-06";
    object      rhoU;
}
// * * * * * * * * * * * * * * * * * * * * * * * * * * * * * * * * * * * * * //

dimensions      [0 0 0 0 0 0 0];

internalField   nonuniform List<vector> 
84
(
(0.0727235 0.000150647 1.51004e-19)
(0.050828 0.000107505 -1.49112e-19)
(0.0527162 0.000112957 -2.73905e-19)
(0.0526117 0.000114386 1.64978e-19)
(0.0526187 0.000116091 -1.8912e-20)
(0.0526211 0.000117837 2.009e-20)
(0.0526238 0.000119637 2.61168e-19)
(0.0529368 0.000120179 3.84885e-20)
(0.0763128 -0.000161295 1.5519e-19)
(0.0533965 -0.000116709 -1.48928e-19)
(0.0554131 -0.00012231 -3.48069e-19)
(0.0553449 -0.000124049 3.74809e-20)
(0.0553944 -0.000126053 -6.58392e-19)
(0.0554405 -0.000128114 1.4177e-19)
(0.0554884 -0.000130245 5.25416e-19)
(0.0558141 -0.000130798 1.06521e-19)
(0.0756642 -0.000146634 -6.27689e-19)
(0.0533846 -0.000128517 1.17507e-19)
(0.0551015 -0.000120396 2.02515e-19)
(0.0550589 -0.000123511 -2.02954e-20)
(0.055102 -0.000125413 -8.25595e-21)
(0.0551434 -0.000127457 2.58121e-19)
(0.0551863 -0.000129566 -2.2657e-19)
(0.0555107 -0.000130118 -2.49067e-19)
(0.0753859 -0.000151512 -6.10201e-19)
(0.0528998 -0.000117802 2.86157e-19)
(0.0548814 -0.00012301 -2.80613e-20)
(0.0548066 -0.000124775 -5.87613e-19)
(0.054848 -0.000126804 5.76115e-19)
(0.0548858 -0.000128892 1.00008e-19)
(0.055209 -0.000129441 -2.27811e-19)
(0.0752363 -0.00016168 -3.82838e-19)
(0.0526147 -0.000116637 -1.03002e-19)
(0.0545962 -0.000122456 1.0019e-20)
(0.0545168 -0.000124178 3.06611e-21)
(0.0545535 -0.000126189 -2.15086e-19)
(0.0545865 -0.000128256 1.65722e-19)
(0.0549084 -0.000128804 3.66368e-19)
(0.0748569 -0.000155103 -2.30194e-19)
(0.0523424 -0.000111708 3.0915e-19)
(0.05431 -0.000117342 -2.94519e-20)
(0.0542265 -0.000119014 3.73145e-19)
(0.0542586 -0.000120967 -3.40415e-19)
(0.0542867 -0.000122975 2.88726e-19)
(0.0546073 -0.000123502 -6.32814e-19)
(0.0744744 -0.000124269 -7.68052e-23)
(0.0520702 -8.96037e-05 2.93286e-19)
(0.0540226 -9.40187e-05 -2.85847e-20)
(0.0539352 -9.53584e-05 5.45912e-22)
(0.0539625 -9.69124e-05 3.08448e-19)
(0.0539858 -9.85109e-05 4.15162e-20)
(0.054305 -9.8935e-05 3.05697e-19)
(0.0739568 -9.35289e-05 4.96054e-21)
(0.051946 -8.56292e-05 3.5957e-21)
(0.0537261 -7.86072e-05 -1.50992e-21)
(0.0536511 -8.08521e-05 -3.76757e-21)
(0.0536729 -8.21116e-05 -7.91486e-22)
(0.0536915 -8.34779e-05 1.68395e-21)
(0.0540094 -8.3837e-05 -2.56402e-19)
(0.0736057 -8.86974e-05 8.11398e-19)
(0.0515404 -6.86144e-05 -6.88733e-20)
(0.0534587 -7.17263e-05 -6.44689e-19)
(0.0533637 -7.27461e-05 -2.11848e-19)
(0.0533818 -7.39262e-05 3.51057e-19)
(0.0536983 -7.42484e-05 -3.43134e-20)
(0.073391 -9.2842e-05 -2.91325e-19)
(0.0512921 -6.66003e-05 2.46809e-20)
(0.0532064 -6.9956e-05 -2.97853e-19)
(0.053108 -7.08941e-05 3.26942e-19)
(0.0531224 -7.20008e-05 5.48839e-19)
(0.0534376 -7.23196e-05 -5.45374e-20)
(0.0729367 -9.83714e-05 -4.08673e-19)
(0.0510231 -7.59565e-05 3.36958e-20)
(0.0529147 -7.89964e-05 -1.21157e-21)
(0.0528126 -8.01157e-05 5.74134e-19)
(0.0528221 -8.13783e-05 5.94174e-19)
(0.053136 -8.1737e-05 2.46553e-20)
(0.0722259 -1.29298e-05 -2.66621e-20)
(0.0508341 -0.000101093 1.57867e-21)
(0.0526316 -9.19716e-05 -6.61686e-23)
(0.0525332 -9.41536e-05 3.49979e-19)
(0.0525378 -9.55584e-05 -3.36504e-20)
(0.0525383 -9.70501e-05 1.99053e-21)
(0.0528512 -9.74822e-05 -2.98126e-19)
)
;

boundaryField
{
    inlet
    {
        type            calculated;
        value           nonuniform List<vector> 0();
    }
    outlet2
    {
        type            calculated;
        value           uniform (0 0 0);
    }
    outlet1
    {
        type            calculated;
        value           uniform (0 0 0);
    }
    wall
    {
        type            calculated;
        value           uniform (0 0 0);
    }
    symmetryBottom
    {
        type            symmetry;
    }
    symmetryZ0
    {
        type            symmetry;
    }
    symmetryZ05
    {
        type            symmetry;
    }
    procBoundary0to1
    {
        type            processor;
        value           uniform (0 0 0);
    }
}


// ************************************************************************* //
