/*--------------------------------*- C++ -*----------------------------------*\
| =========                 |                                                 |
| \\      /  F ield         | OpenFOAM: The Open Source CFD Toolbox           |
|  \\    /   O peration     | Version:  2412                                  |
|   \\  /    A nd           | Website:  www.openfoam.com                      |
|    \\/     M anipulation  |                                                 |
\*---------------------------------------------------------------------------*/
FoamFile
{
    version     2.0;
    format      ascii;
    arch        "LSB;label=32;scalar=64";
    class       volScalarField;
    location    "6.1e-06";
    object      E_dof0;
}
// * * * * * * * * * * * * * * * * * * * * * * * * * * * * * * * * * * * * * //

dimensions      [0 0 0 0 0 0 0];

internalField   nonuniform List<scalar> 
84
(
99.4385
22.4771
39.6233
99.4699
22.5021
39.6473
99.4619
22.4989
39.6429
99.4619
22.4989
39.6429
99.4619
22.4989
39.6429
99.4619
22.4989
39.6429
99.4619
22.4989
39.6429
99.4619
22.4989
39.6429
99.4619
22.4989
39.6429
99.4619
22.4989
39.6429
99.4619
22.4988
39.6429
99.4621
22.4931
39.64
70.2479
66.6379
67.309
74.4016
70.3539
71.0777
73.9641
69.9624
70.6761
73.5288
69.5729
69.9031
66.4836
73.0951
69.185
69.5057
69.9243
72.6637
68.7989
69.1102
69.5271
72.2424
68.4215
68.7236
69.1389
71.8319
68.0534
68.3467
68.7579
71.4535
67.7103
67.996
68.0011
66.6671
70.9307
67.2516
67.5249
67.5232
67.9422
70.5279
66.8897
67.1545
67.1489
67.6894
70.1253
66.5284
66.7848
67.1908
)
;

boundaryField
{
    inlet
    {
        type            calculated;
        value           uniform 99.4306;
    }
    outlet2
    {
        type            calculated;
        value           uniform 99.4306;
    }
    outlet1
    {
        type            calculated;
        value           nonuniform List<scalar> 0();
    }
    wall
    {
        type            calculated;
        value           uniform 99.4306;
    }
    symmetryBottom
    {
        type            symmetry;
    }
    symmetryZ0
    {
        type            symmetry;
    }
    symmetryZ05
    {
        type            symmetry;
    }
    procBoundary1to0
    {
        type            processor;
        value           uniform 99.4306;
    }
}


// ************************************************************************* //
