/*--------------------------------*- C++ -*----------------------------------*\
| =========                 |                                                 |
| \\      /  F ield         | OpenFOAM: The Open Source CFD Toolbox           |
|  \\    /   O peration     | Version:  2412                                  |
|   \\  /    A nd           | Website:  www.openfoam.com                      |
|    \\/     M anipulation  |                                                 |
\*---------------------------------------------------------------------------*/
FoamFile
{
    version     2.0;
    format      ascii;
    arch        "LSB;label=32;scalar=64";
    class       volScalarField;
    location    "6.1e-06";
    object      rho;
}
// * * * * * * * * * * * * * * * * * * * * * * * * * * * * * * * * * * * * * //

dimensions      [0 0 0 0 0 0 0];

internalField   nonuniform List<scalar> 
84
(
2.81107e-05
6.55238e-06
1.13047e-05
2.81196e-05
6.55957e-06
1.13116e-05
2.81174e-05
6.55865e-06
1.13103e-05
2.81174e-05
6.55865e-06
1.13103e-05
2.81174e-05
6.55865e-06
1.13103e-05
2.81174e-05
6.55865e-06
1.13103e-05
2.81174e-05
6.55865e-06
1.13103e-05
2.81174e-05
6.55865e-06
1.13103e-05
2.81174e-05
6.55865e-06
1.13103e-05
2.81174e-05
6.55865e-06
1.13103e-05
2.81174e-05
6.55864e-06
1.13103e-05
2.81174e-05
6.55702e-06
1.13095e-05
1.99421e-05
1.89387e-05
1.91254e-05
2.10943e-05
1.99709e-05
2.0172e-05
2.09718e-05
1.98611e-05
2.00594e-05
2.08498e-05
1.97518e-05
1.98426e-05
1.88842e-05
2.07284e-05
1.96429e-05
1.97311e-05
1.98486e-05
2.06069e-05
1.95341e-05
1.96197e-05
1.97367e-05
2.04857e-05
1.94257e-05
1.95086e-05
1.96251e-05
2.03668e-05
1.93192e-05
1.93996e-05
1.95149e-05
2.02418e-05
1.92073e-05
1.92849e-05
1.92861e-05
1.89394e-05
2.01345e-05
1.9111e-05
1.91864e-05
1.91862e-05
1.93041e-05
2.00126e-05
1.90018e-05
1.90745e-05
1.90731e-05
1.92246e-05
1.98977e-05
1.88985e-05
1.89689e-05
1.90828e-05
)
;

boundaryField
{
    inlet
    {
        type            calculated;
        value           uniform 0;
    }
    outlet2
    {
        type            calculated;
        value           uniform 0;
    }
    outlet1
    {
        type            calculated;
        value           nonuniform List<scalar> 0();
    }
    wall
    {
        type            calculated;
        value           uniform 0;
    }
    symmetryBottom
    {
        type            symmetry;
    }
    symmetryZ0
    {
        type            symmetry;
    }
    symmetryZ05
    {
        type            symmetry;
    }
    procBoundary1to0
    {
        type            processor;
        value           uniform 0;
    }
}


// ************************************************************************* //
