/*--------------------------------*- C++ -*----------------------------------*\
| =========                 |                                                 |
| \\      /  F ield         | OpenFOAM: The Open Source CFD Toolbox           |
|  \\    /   O peration     | Version:  2412                                  |
|   \\  /    A nd           | Website:  www.openfoam.com                      |
|    \\/     M anipulation  |                                                 |
\*---------------------------------------------------------------------------*/
FoamFile
{
    version     2.0;
    format      ascii;
    arch        "LSB;label=32;scalar=64";
    class       volScalarField;
    location    "5.4e-06";
    object      E_dof0;
}
// * * * * * * * * * * * * * * * * * * * * * * * * * * * * * * * * * * * * * //

dimensions      [0 0 0 0 0 0 0];

internalField   nonuniform List<scalar> 
84
(
99.437
29.5096
43.4135
99.4624
29.5332
43.4353
99.4559
29.5302
43.4315
99.4559
29.5302
43.4315
99.4559
29.5302
43.4315
99.4559
29.5302
43.4315
99.4559
29.5302
43.4315
99.4559
29.5302
43.4315
99.4559
29.5302
43.4315
99.4559
29.5302
43.4315
99.4559
29.5301
43.4315
99.4562
29.5248
43.4285
72.793
69.8046
70.3695
76.5796
73.2515
73.8549
76.1827
72.89
73.4858
75.7875
72.5303
72.777
69.6543
75.3937
72.1718
72.4106
72.7966
75.002
71.8151
72.0461
72.4307
74.6194
71.4664
71.6898
72.0731
74.2457
71.1255
71.3417
71.7215
73.9027
70.8097
71.0194
71.028
69.8025
73.423
70.3802
70.5798
70.582
70.9663
73.0577
70.0464
70.2389
70.2373
70.7188
72.6895
69.7103
69.8958
70.2713
)
;

boundaryField
{
    inlet
    {
        type            calculated;
        value           uniform 99.4306;
    }
    outlet2
    {
        type            calculated;
        value           uniform 99.4306;
    }
    outlet1
    {
        type            calculated;
        value           nonuniform List<scalar> 0();
    }
    wall
    {
        type            calculated;
        value           uniform 99.4306;
    }
    symmetryBottom
    {
        type            symmetry;
    }
    symmetryZ0
    {
        type            symmetry;
    }
    symmetryZ05
    {
        type            symmetry;
    }
    procBoundary1to0
    {
        type            processor;
        value           uniform 99.4306;
    }
}


// ************************************************************************* //
