/*--------------------------------*- C++ -*----------------------------------*\
| =========                 |                                                 |
| \\      /  F ield         | OpenFOAM: The Open Source CFD Toolbox           |
|  \\    /   O peration     | Version:  2412                                  |
|   \\  /    A nd           | Website:  www.openfoam.com                      |
|    \\/     M anipulation  |                                                 |
\*---------------------------------------------------------------------------*/
FoamFile
{
    version     2.0;
    format      ascii;
    arch        "LSB;label=32;scalar=64";
    class       volScalarField;
    location    "5.4e-06";
    object      rho;
}
// * * * * * * * * * * * * * * * * * * * * * * * * * * * * * * * * * * * * * //

dimensions      [0 0 0 0 0 0 0];

internalField   nonuniform List<scalar> 
84
(
2.81103e-05
8.52766e-06
1.23798e-05
2.81175e-05
8.53443e-06
1.23861e-05
2.81157e-05
8.53357e-06
1.2385e-05
2.81157e-05
8.53356e-06
1.2385e-05
2.81157e-05
8.53356e-06
1.2385e-05
2.81157e-05
8.53356e-06
1.2385e-05
2.81157e-05
8.53356e-06
1.2385e-05
2.81157e-05
8.53356e-06
1.2385e-05
2.81157e-05
8.53356e-06
1.2385e-05
2.81157e-05
8.53356e-06
1.2385e-05
2.81157e-05
8.53355e-06
1.2385e-05
2.81157e-05
8.53205e-06
1.23841e-05
2.06561e-05
1.98261e-05
1.99834e-05
2.17062e-05
2.07831e-05
2.09508e-05
2.1595e-05
2.06817e-05
2.08474e-05
2.14844e-05
2.05808e-05
2.06487e-05
1.97738e-05
2.13741e-05
2.04803e-05
2.0546e-05
2.06542e-05
2.12638e-05
2.03798e-05
2.04433e-05
2.05511e-05
2.11538e-05
2.02796e-05
2.03409e-05
2.04484e-05
2.10456e-05
2.0181e-05
2.02402e-05
2.03467e-05
2.09325e-05
2.0078e-05
2.0135e-05
2.01371e-05
1.98184e-05
2.08336e-05
1.99877e-05
2.00428e-05
2.00436e-05
2.01517e-05
2.0723e-05
1.98869e-05
1.99398e-05
1.99395e-05
2.00744e-05
2.06179e-05
1.97909e-05
1.98418e-05
1.99471e-05
)
;

boundaryField
{
    inlet
    {
        type            calculated;
        value           uniform 0;
    }
    outlet2
    {
        type            calculated;
        value           uniform 0;
    }
    outlet1
    {
        type            calculated;
        value           nonuniform List<scalar> 0();
    }
    wall
    {
        type            calculated;
        value           uniform 0;
    }
    symmetryBottom
    {
        type            symmetry;
    }
    symmetryZ0
    {
        type            symmetry;
    }
    symmetryZ05
    {
        type            symmetry;
    }
    procBoundary1to0
    {
        type            processor;
        value           uniform 0;
    }
}


// ************************************************************************* //
