/*--------------------------------*- C++ -*----------------------------------*\
| =========                 |                                                 |
| \\      /  F ield         | OpenFOAM: The Open Source CFD Toolbox           |
|  \\    /   O peration     | Version:  2412                                  |
|   \\  /    A nd           | Website:  www.openfoam.com                      |
|    \\/     M anipulation  |                                                 |
\*---------------------------------------------------------------------------*/
FoamFile
{
    version     2.0;
    format      ascii;
    arch        "LSB;label=32;scalar=64";
    class       volVectorField;
    location    "5.4e-06";
    object      rhoU;
}
// * * * * * * * * * * * * * * * * * * * * * * * * * * * * * * * * * * * * * //

dimensions      [0 0 0 0 0 0 0];

internalField   nonuniform List<vector> 
84
(
(0.0741096 -4.68709e-07 0)
(0.022233 -6.10482e-07 0)
(0.0324938 -5.04099e-07 -1.2101e-19)
(0.0741286 -0.00012239 0)
(0.0222508 -5.04354e-05 0)
(0.0325102 -6.6528e-05 -1.17101e-19)
(0.0741238 -0.000121929 0)
(0.0222485 -5.02259e-05 0)
(0.0325074 -6.62609e-05 1.57689e-19)
(0.0741238 -0.000121929 0)
(0.0222485 -5.02259e-05 0)
(0.0325074 -6.62609e-05 -2.08538e-19)
(0.0741238 -0.000121929 0)
(0.0222485 -5.02259e-05 0)
(0.0325074 -6.62609e-05 -3.162e-19)
(0.0741238 -0.000121929 0)
(0.0222485 -5.02259e-05 0)
(0.0325074 -6.62609e-05 2.03749e-19)
(0.0741238 -0.000121929 0)
(0.0222485 -5.02259e-05 0)
(0.0325074 -6.62609e-05 -2.25712e-19)
(0.0741238 -0.000121929 0)
(0.0222485 -5.02259e-05 0)
(0.0325074 -6.62609e-05 -2.60779e-19)
(0.0741238 -0.000121929 0)
(0.0222485 -5.02259e-05 0)
(0.0325074 -6.62609e-05 1.19421e-19)
(0.0741238 -0.000121929 0)
(0.0222485 -5.02259e-05 0)
(0.0325074 -6.62608e-05 -2.27332e-19)
(0.0741238 -0.000121929 0)
(0.0222485 -5.02228e-05 0)
(0.0325074 -6.6259e-05 -6.12944e-19)
(0.074124 -0.000121945 0)
(0.0222446 -4.98381e-05 0)
(0.0325051 -6.60395e-05 0)
(0.0543444 0.000117652 1.21347e-20)
(0.0521371 0.000107147 1.26451e-19)
(0.0525549 0.000108329 1.3086e-20)
(0.0571485 -0.000119482 1.16862e-20)
(0.0546911 -0.000116189 1.36933e-19)
(0.0551371 -0.000116935 -3.36367e-21)
(0.0568541 -0.000118912 -1.65227e-20)
(0.0544227 -0.000115642 -6.46101e-20)
(0.0548632 -0.000116268 -2.30994e-19)
(0.0565609 -0.000118327 2.12348e-20)
(0.0541557 -0.000115099 -3.3964e-21)
(0.0543371 -0.000117095 2.23197e-22)
(0.05202 7.67795e-06 2.04009e-19)
(0.0562687 -0.000117776 -3.36721e-20)
(0.0538895 -0.000114587 8.93281e-22)
(0.0540651 -0.000116565 -2.0918e-21)
(0.0543516 -0.000117011 2.11657e-19)
(0.055976 -0.000112428 -2.08796e-20)
(0.0536229 -0.000109742 -1.32634e-19)
(0.0537927 -0.000111634 7.94315e-21)
(0.0540782 -0.000112064 1.45842e-19)
(0.0556823 -8.8697e-05 2.49165e-20)
(0.0533553 -8.80591e-05 -2.35085e-21)
(0.0535193 -8.94733e-05 -1.30084e-22)
(0.0538038 -8.98225e-05 -1.13902e-21)
(0.0553948 -7.40344e-05 3.06512e-20)
(0.0530931 -7.46402e-05 -1.34458e-19)
(0.0532515 -7.57746e-05 1.47496e-19)
(0.0535334 -7.59883e-05 1.98374e-21)
(0.0550942 -6.4965e-05 -1.17555e-20)
(0.0528183 -6.63288e-05 -2.01017e-19)
(0.0529707 -6.72591e-05 -1.85415e-19)
(0.0529763 -6.82482e-05 2.16711e-19)
(0.0521368 8.10351e-06 1.17594e-18)
(0.0548357 -6.33639e-05 2.62463e-20)
(0.0525853 -6.48547e-05 -1.95855e-19)
(0.0527325 -6.57188e-05 1.41697e-19)
(0.0527347 -6.66551e-05 2.68836e-19)
(0.053021 -6.73427e-05 1.73022e-19)
(0.0545432 -7.25136e-05 6.49834e-20)
(0.0523183 -7.3162e-05 -3.83433e-21)
(0.0524598 -7.42144e-05 4.08934e-22)
(0.0524589 -7.53596e-05 -3.44574e-22)
(0.0528159 -8.09265e-05 -2.12593e-19)
(0.0542655 -8.80054e-05 1.44546e-22)
(0.0520647 -8.72167e-05 1.89118e-19)
(0.0522009 -8.85628e-05 -1.6911e-20)
(0.0524798 -8.88715e-05 -2.6958e-19)
)
;

boundaryField
{
    inlet
    {
        type            calculated;
        value           uniform (0 0 0);
    }
    outlet2
    {
        type            calculated;
        value           uniform (0 0 0);
    }
    outlet1
    {
        type            calculated;
        value           nonuniform List<vector> 0();
    }
    wall
    {
        type            calculated;
        value           uniform (0 0 0);
    }
    symmetryBottom
    {
        type            symmetry;
    }
    symmetryZ0
    {
        type            symmetry;
    }
    symmetryZ05
    {
        type            symmetry;
    }
    procBoundary1to0
    {
        type            processor;
        value           uniform (0 0 0);
    }
}


// ************************************************************************* //
