/*--------------------------------*- C++ -*----------------------------------*\
| =========                 |                                                 |
| \\      /  F ield         | OpenFOAM: The Open Source CFD Toolbox           |
|  \\    /   O peration     | Version:  2412                                  |
|   \\  /    A nd           | Website:  www.openfoam.com                      |
|    \\/     M anipulation  |                                                 |
\*---------------------------------------------------------------------------*/
FoamFile
{
    version     2.0;
    format      ascii;
    arch        "LSB;label=32;scalar=64";
    class       volScalarField;
    location    "5.4e-06";
    object      T;
}
// * * * * * * * * * * * * * * * * * * * * * * * * * * * * * * * * * * * * * //

dimensions      [0 0 0 0 0 0 0];

internalField   nonuniform List<scalar> 
84
(
200.009
198.976
200.146
199.978
198.896
200.089
199.97
198.885
200.079
199.97
198.885
200.079
199.97
198.885
200.079
199.97
198.885
200.079
199.97
198.885
200.079
199.97
198.885
200.079
199.97
198.885
200.079
199.97
198.885
200.079
199.97
198.885
200.079
199.971
198.863
200.07
203.392
203.205
203.22
200.021
199.992
199.999
200.021
199.992
199.999
200.021
199.992
199.999
200.021
200.024
199.996
200.002
200.002
200.554
200.495
200.509
200.507
203.03
202.853
202.912
202.907
205.366
205.074
205.176
205.167
215.175
214.299
214.603
214.832
198.757
194.276
194.491
194.396
194.312
194.089
198.644
198.68
198.662
198.642
198.732
199.444
199.442
199.438
199.439
)
;

boundaryField
{
    inlet
    {
        type            calculated;
        value           uniform 0;
    }
    outlet2
    {
        type            calculated;
        value           uniform 0;
    }
    outlet1
    {
        type            calculated;
        value           nonuniform List<scalar> 0();
    }
    wall
    {
        type            calculated;
        value           uniform 0;
    }
    symmetryBottom
    {
        type            symmetry;
    }
    symmetryZ0
    {
        type            symmetry;
    }
    symmetryZ05
    {
        type            symmetry;
    }
    procBoundary1to0
    {
        type            processor;
        value           uniform 0;
    }
}


// ************************************************************************* //
