/*--------------------------------*- C++ -*----------------------------------*\
| =========                 |                                                 |
| \\      /  F ield         | OpenFOAM: The Open Source CFD Toolbox           |
|  \\    /   O peration     | Version:  2412                                  |
|   \\  /    A nd           | Website:  www.openfoam.com                      |
|    \\/     M anipulation  |                                                 |
\*---------------------------------------------------------------------------*/
FoamFile
{
    version     2.0;
    format      ascii;
    arch        "LSB;label=32;scalar=64";
    class       volVectorField;
    location    "9.5e-06";
    object      rhoU_dof0;
}
// * * * * * * * * * * * * * * * * * * * * * * * * * * * * * * * * * * * * * //

dimensions      [0 0 0 0 0 0 0];

internalField   nonuniform List<vector> 
84
(
(0.0890929 1.98485e-07 -3.93526e-21)
(0.00458307 -4.58742e-07 2.61085e-20)
(0.0122271 1.65831e-07 -1.2259e-19)
(0.0891244 -0.000269483 -4.16484e-21)
(0.00464926 -2.46866e-05 2.75173e-20)
(0.0116964 -4.42362e-05 -1.28436e-19)
(0.089144 -0.000269543 5.47233e-21)
(0.00464377 -2.47226e-05 -3.60898e-20)
(0.0117644 -4.39885e-05 1.67442e-19)
(0.0891448 -0.000269555 -7.14628e-21)
(0.00463586 -2.46969e-05 4.71617e-20)
(0.0118334 -4.4226e-05 -2.21469e-19)
(0.0891455 -0.000269557 -1.26794e-20)
(0.00462797 -2.46696e-05 8.29133e-20)
(0.0119022 -4.44687e-05 -3.8036e-19)
(0.0891463 -0.00026956 6.94461e-21)
(0.00462011 -2.46425e-05 -4.54891e-20)
(0.0119707 -4.47085e-05 2.10709e-19)
(0.0891471 -0.000269562 -9.3097e-21)
(0.00461229 -2.46156e-05 6.13046e-20)
(0.0120387 -4.49469e-05 -2.84318e-19)
(0.0891478 -0.000269565 -1.0804e-20)
(0.0046045 -2.45887e-05 7.11084e-20)
(0.0121064 -4.5184e-05 -3.31972e-19)
(0.0891486 -0.000269567 4.01813e-21)
(0.00459674 -2.45619e-05 -2.63398e-20)
(0.0121737 -4.54198e-05 1.21296e-19)
(0.0891494 -0.00026957 -9.20073e-21)
(0.00458902 -2.45353e-05 6.12481e-20)
(0.0122406 -4.56542e-05 -2.89513e-19)
(0.0891502 -0.000269573 -2.38257e-20)
(0.00458129 -2.45085e-05 1.57766e-19)
(0.012307 -4.58872e-05 -7.3891e-19)
(0.0891514 -0.000269815 8.6669e-24)
(0.00457351 -2.40806e-05 -1.60816e-22)
(0.0123731 -4.58162e-05 2.31728e-21)
(0.0434122 -3.20356e-06 -2.45229e-21)
(0.0406382 -3.02765e-06 1.94541e-19)
(0.0385015 -2.90306e-06 -2.72619e-20)
(0.0465896 -0.000168332 -1.90606e-21)
(0.0435072 -0.000160205 1.98066e-19)
(0.041211 -0.000151099 -3.15888e-20)
(0.046229 -0.000170161 -1.15948e-20)
(0.0431805 -0.000161804 -6.77887e-20)
(0.0409446 -0.000154797 -2.77249e-19)
(0.0458205 -0.000168761 2.2616e-20)
(0.042688 -0.000159234 -3.74534e-21)
(0.0433412 -0.000178615 -2.95078e-20)
(0.036406 5.12744e-05 3.86415e-19)
(0.0454107 -0.000167264 -5.1236e-20)
(0.0423349 -0.000158584 2.28254e-21)
(0.0426586 -0.00016262 -2.85073e-20)
(0.0401842 -0.000148552 3.3895e-19)
(0.0450049 -0.000165802 -7.28738e-21)
(0.0419704 -0.000157266 -1.93877e-19)
(0.0422788 -0.000160854 -7.3777e-21)
(0.0398862 -0.000151052 2.30596e-19)
(0.0446026 -0.000164353 2.861e-20)
(0.0416087 -0.00015594 -3.96742e-21)
(0.0419075 -0.000159467 -1.67562e-21)
(0.0395388 -0.000149816 -9.38009e-23)
(0.0442037 -0.000162916 5.05463e-20)
(0.0412501 -0.000154627 -2.12838e-19)
(0.0415387 -0.000158016 2.05018e-19)
(0.0392117 -0.000150313 1.10062e-21)
(0.0438081 -0.00016149 1.01871e-20)
(0.0408978 -0.000153368 -2.6416e-19)
(0.0410683 -0.000155438 -2.78945e-19)
(0.0413241 -0.000173665 1.62864e-19)
(0.0369919 5.01369e-05 1.82393e-18)
(0.0434161 -0.000160078 5.30194e-20)
(0.040545 -0.00015205 -2.98865e-19)
(0.0407147 -0.000154794 1.80848e-19)
(0.04082 -0.000157814 4.33068e-19)
(0.0385078 -0.000146574 2.98721e-19)
(0.0430273 -0.000158677 7.75001e-20)
(0.0401954 -0.000150765 -4.8761e-21)
(0.0403578 -0.000153533 8.7665e-24)
(0.0404518 -0.000154936 2.02667e-20)
(0.0382183 -0.00016383 -2.40176e-19)
(0.0426423 -0.00015726 -2.25634e-20)
(0.0398463 -0.000149419 2.88929e-19)
(0.0400967 -0.000151746 1.38454e-20)
(0.0378966 -0.000162799 -4.67372e-19)
)
;

boundaryField
{
    inlet
    {
        type            calculated;
        value           uniform (0.0741049 0 0);
    }
    outlet2
    {
        type            calculated;
        value           uniform (0.0741049 0 0);
    }
    outlet1
    {
        type            calculated;
        value           nonuniform List<vector> 0();
    }
    wall
    {
        type            calculated;
        value           uniform (0.0741049 0 0);
    }
    symmetryBottom
    {
        type            symmetry;
    }
    symmetryZ0
    {
        type            symmetry;
    }
    symmetryZ05
    {
        type            symmetry;
    }
    procBoundary1to0
    {
        type            processor;
        value           uniform (0.0741049 0 0);
    }
}


// ************************************************************************* //
