/*--------------------------------*- C++ -*----------------------------------*\
| =========                 |                                                 |
| \\      /  F ield         | OpenFOAM: The Open Source CFD Toolbox           |
|  \\    /   O peration     | Version:  2412                                  |
|   \\  /    A nd           | Website:  www.openfoam.com                      |
|    \\/     M anipulation  |                                                 |
\*---------------------------------------------------------------------------*/
FoamFile
{
    version     2.0;
    format      ascii;
    arch        "LSB;label=32;scalar=64";
    class       volVectorField;
    location    "9.5e-06";
    object      U;
}
// * * * * * * * * * * * * * * * * * * * * * * * * * * * * * * * * * * * * * //

dimensions      [0 0 0 0 0 0 0];

internalField   nonuniform List<vector> 
84
(
(2640.9 0.0058835 -1.16649e-16)
(2498.02 -0.250039 1.42305e-14)
(2600.66 0.0352718 -2.60744e-14)
(2640.89 -7.9852 -1.23411e-16)
(2500.28 -13.2759 1.47983e-14)
(2597.86 -9.82522 -2.85268e-14)
(2640.89 -7.98522 1.62118e-16)
(2500.03 -13.3097 -1.94294e-14)
(2598.19 -9.71495 3.698e-14)
(2640.89 -7.98549 -2.11707e-16)
(2499.75 -13.3171 2.54305e-14)
(2598.54 -9.71181 -4.86335e-14)
(2640.89 -7.9855 -3.7562e-16)
(2499.47 -13.3235 4.47797e-14)
(2598.89 -9.70989 -8.3053e-14)
(2640.89 -7.98551 2.05729e-16)
(2499.19 -13.3301 -2.46067e-14)
(2599.24 -9.70772 4.57519e-14)
(2640.89 -7.98552 -2.75791e-16)
(2498.91 -13.3366 3.32145e-14)
(2599.57 -9.70557 -6.1394e-14)
(2640.89 -7.98553 -3.20054e-16)
(2498.63 -13.3431 3.8587e-14)
(2599.9 -9.70347 -7.12926e-14)
(2640.89 -7.98553 1.19031e-16)
(2498.36 -13.3495 -1.43158e-14)
(2600.23 -9.70141 2.59082e-14)
(2640.89 -7.98554 -2.72556e-16)
(2498.08 -13.356 3.3341e-14)
(2600.54 -9.69937 -6.1508e-14)
(2640.9 -7.98556 -7.05788e-16)
(2497.8 -13.3625 8.60169e-14)
(2600.86 -9.69737 -1.56154e-13)
(2640.9 -7.99261 2.56736e-19)
(2497.52 -13.15 -8.78188e-17)
(2601.16 -9.63181 4.87154e-16)
(2628.36 -0.193957 -1.48472e-16)
(2626.39 -0.195673 1.2573e-14)
(2624.16 -0.197866 -1.8581e-15)
(2629.95 -9.50219 -1.07596e-16)
(2627.93 -9.67671 1.19636e-14)
(2625.71 -9.6271 -2.01264e-15)
(2629.83 -9.67998 -6.59593e-16)
(2627.82 -9.84684 -4.12538e-15)
(2625.65 -9.92664 -1.77791e-14)
(2629.69 -9.6854 1.29796e-15)
(2627.52 -9.80115 -2.30532e-16)
(2628.13 -10.8309 -1.7893e-15)
(2623.08 3.69437 2.78416e-14)
(2629.55 -9.68555 -2.96687e-15)
(2627.4 -9.84208 1.4166e-16)
(2627.76 -10.0173 -1.75604e-15)
(2625.3 -9.70513 2.21441e-14)
(2629.4 -9.68693 -4.25764e-16)
(2627.27 -9.84456 -1.21364e-14)
(2627.61 -9.99701 -4.58521e-16)
(2625.19 -9.94182 1.51771e-14)
(2629.26 -9.68835 1.68652e-15)
(2627.13 -9.8459 -2.50499e-16)
(2627.47 -9.9981 -1.05056e-16)
(2625.06 -9.94659 -6.22762e-18)
(2629.11 -9.68977 3.00636e-15)
(2626.99 -9.84738 -1.35545e-14)
(2627.33 -9.99458 1.29674e-14)
(2624.94 -10.0624 7.36787e-17)
(2628.96 -9.69114 6.11337e-16)
(2626.86 -9.8508 -1.6967e-14)
(2627.04 -9.94304 -1.78435e-14)
(2627.3 -11.0412 1.03546e-14)
(2623.73 3.55606 1.29366e-13)
(2628.82 -9.69261 3.21029e-15)
(2626.72 -9.85061 -1.93621e-14)
(2626.91 -9.98727 1.16683e-14)
(2627.05 -10.1564 2.78709e-14)
(2624.64 -9.99026 2.03604e-14)
(2628.67 -9.69405 4.73472e-15)
(2626.59 -9.8518 -3.1863e-16)
(2626.77 -9.99303 5.70586e-19)
(2626.9 -10.0614 1.3161e-15)
(2624.55 -11.2506 -1.64935e-14)
(2628.52 -9.6937 -1.39084e-15)
(2626.45 -9.84886 1.90446e-14)
(2626.77 -9.94098 9.07023e-16)
(2624.41 -11.2742 -3.23664e-14)
)
;

boundaryField
{
    inlet
    {
        type            calculated;
        value           uniform (0 0 0);
    }
    outlet2
    {
        type            calculated;
        value           uniform (0 0 0);
    }
    outlet1
    {
        type            calculated;
        value           nonuniform List<vector> 0();
    }
    wall
    {
        type            calculated;
        value           uniform (0 0 0);
    }
    symmetryBottom
    {
        type            symmetry;
    }
    symmetryZ0
    {
        type            symmetry;
    }
    symmetryZ05
    {
        type            symmetry;
    }
    procBoundary1to0
    {
        type            processor;
        value           uniform (0 0 0);
    }
}


// ************************************************************************* //
