/*--------------------------------*- C++ -*----------------------------------*\
| =========                 |                                                 |
| \\      /  F ield         | OpenFOAM: The Open Source CFD Toolbox           |
|  \\    /   O peration     | Version:  2412                                  |
|   \\  /    A nd           | Website:  www.openfoam.com                      |
|    \\/     M anipulation  |                                                 |
\*---------------------------------------------------------------------------*/
FoamFile
{
    version     2.0;
    format      ascii;
    arch        "LSB;label=32;scalar=64";
    class       volScalarField;
    location    "4.7e-06";
    object      rho;
}
// * * * * * * * * * * * * * * * * * * * * * * * * * * * * * * * * * * * * * //

dimensions      [0 0 0 0 0 0 0];

internalField   nonuniform List<scalar> 
84
(
2.81099e-05
1.06162e-05
1.36333e-05
2.81155e-05
1.06224e-05
1.36388e-05
2.81141e-05
1.06216e-05
1.36379e-05
2.81141e-05
1.06216e-05
1.36379e-05
2.81141e-05
1.06216e-05
1.36379e-05
2.81141e-05
1.06216e-05
1.36379e-05
2.81141e-05
1.06216e-05
1.36379e-05
2.81141e-05
1.06216e-05
1.36379e-05
2.81141e-05
1.06216e-05
1.36379e-05
2.81141e-05
1.06216e-05
1.36379e-05
2.81141e-05
1.06216e-05
1.36379e-05
2.81142e-05
1.06202e-05
1.36371e-05
2.14139e-05
2.07511e-05
2.08817e-05
2.23552e-05
2.16231e-05
2.17611e-05
2.2256e-05
2.15312e-05
2.16676e-05
2.21573e-05
2.14397e-05
2.14886e-05
2.0703e-05
2.20588e-05
2.13484e-05
2.13955e-05
2.14933e-05
2.19603e-05
2.12572e-05
2.13025e-05
2.14e-05
2.1862e-05
2.11662e-05
2.12097e-05
2.13069e-05
2.17652e-05
2.10765e-05
2.11182e-05
2.12147e-05
2.16646e-05
2.09833e-05
2.10232e-05
2.10259e-05
2.07378e-05
2.1575e-05
2.09001e-05
2.09385e-05
2.094e-05
2.10374e-05
2.14763e-05
2.08087e-05
2.08452e-05
2.08456e-05
2.09637e-05
2.13818e-05
2.0721e-05
2.07559e-05
2.08514e-05
)
;

boundaryField
{
    inlet
    {
        type            calculated;
        value           uniform 0;
    }
    outlet2
    {
        type            calculated;
        value           uniform 0;
    }
    outlet1
    {
        type            calculated;
        value           nonuniform List<scalar> 0();
    }
    wall
    {
        type            calculated;
        value           uniform 0;
    }
    symmetryBottom
    {
        type            symmetry;
    }
    symmetryZ0
    {
        type            symmetry;
    }
    symmetryZ05
    {
        type            symmetry;
    }
    procBoundary1to0
    {
        type            processor;
        value           uniform 0;
    }
}


// ************************************************************************* //
