/*--------------------------------*- C++ -*----------------------------------*\
| =========                 |                                                 |
| \\      /  F ield         | OpenFOAM: The Open Source CFD Toolbox           |
|  \\    /   O peration     | Version:  2412                                  |
|   \\  /    A nd           | Website:  www.openfoam.com                      |
|    \\/     M anipulation  |                                                 |
\*---------------------------------------------------------------------------*/
FoamFile
{
    version     2.0;
    format      ascii;
    arch        "LSB;label=32;scalar=64";
    class       volVectorField;
    location    "4.7e-06";
    object      rhoU;
}
// * * * * * * * * * * * * * * * * * * * * * * * * * * * * * * * * * * * * * //

dimensions      [0 0 0 0 0 0 0];

internalField   nonuniform List<vector> 
84
(
(0.0741086 -3.6501e-07 0)
(0.0277592 -5.54329e-07 0)
(0.0357972 -4.58386e-07 -1.15542e-19)
(0.0741234 -0.000109476 0)
(0.0277754 -5.3063e-05 0)
(0.0358118 -6.40359e-05 -1.11635e-19)
(0.0741197 -0.000109112 0)
(0.0277733 -5.28725e-05 0)
(0.0358095 -6.3811e-05 1.51444e-19)
(0.0741197 -0.000109112 0)
(0.0277733 -5.28725e-05 0)
(0.0358095 -6.3811e-05 -1.96019e-19)
(0.0741197 -0.000109112 0)
(0.0277733 -5.28725e-05 0)
(0.0358095 -6.3811e-05 -3.06823e-19)
(0.0741197 -0.000109112 0)
(0.0277733 -5.28725e-05 0)
(0.0358095 -6.3811e-05 1.91258e-19)
(0.0741197 -0.000109112 0)
(0.0277733 -5.28725e-05 0)
(0.0358095 -6.3811e-05 -2.24904e-19)
(0.0741197 -0.000109112 0)
(0.0277733 -5.28725e-05 0)
(0.0358095 -6.3811e-05 -2.58426e-19)
(0.0741197 -0.000109112 0)
(0.0277733 -5.28725e-05 0)
(0.0358095 -6.3811e-05 1.12399e-19)
(0.0741197 -0.000109112 0)
(0.0277733 -5.28725e-05 0)
(0.0358095 -6.3811e-05 -2.22605e-19)
(0.0741197 -0.000109113 0)
(0.0277733 -5.287e-05 0)
(0.0358094 -6.38094e-05 -5.83242e-19)
(0.0741198 -0.000109127 0)
(0.0277697 -5.25188e-05 0)
(0.0358072 -6.35888e-05 0)
(0.0563515 0.000106017 9.68879e-21)
(0.0545881 9.81611e-05 1.12274e-19)
(0.0549348 9.89947e-05 1.16519e-20)
(0.0588654 -0.000107114 9.33271e-21)
(0.0569159 -0.00010521 1.22814e-19)
(0.0572825 -0.000105732 -2.63658e-21)
(0.0586027 -0.000106673 -1.33448e-20)
(0.0566725 -0.000104781 -5.69466e-20)
(0.0570349 -0.000105212 -2.21118e-19)
(0.0583409 -0.000106221 1.71035e-20)
(0.0564301 -0.000104354 -2.77596e-21)
(0.0565608 -0.000106062 1.62586e-22)
(0.05448 5.97954e-06 1.84148e-19)
(0.05808 -0.000105795 -3.23459e-20)
(0.0561884 -0.000103952 6.81891e-22)
(0.0563143 -0.000105646 -1.87297e-21)
(0.0565733 -0.000105995 1.9358e-19)
(0.0578186 -0.000100861 -1.68253e-20)
(0.0559463 -9.94015e-05 -1.18574e-19)
(0.0560674 -0.000101021 5.73225e-21)
(0.0563257 -0.000101357 1.28291e-19)
(0.0575563 -7.97591e-05 2.03263e-20)
(0.0557033 -7.98078e-05 -1.68062e-21)
(0.0558197 -8.10358e-05 -2.59223e-22)
(0.0560771 -8.13088e-05 -1.01048e-21)
(0.0572989 -6.65952e-05 2.52223e-20)
(0.0554648 -6.75714e-05 -1.20676e-19)
(0.0555765 -6.85664e-05 1.28982e-19)
(0.0558319 -6.8734e-05 1.6117e-21)
(0.0570317 -5.87342e-05 -9.3898e-21)
(0.0552165 -6.02521e-05 -1.80403e-19)
(0.0553233 -6.10845e-05 -1.67084e-19)
(0.0553303 -6.19808e-05 2.03421e-19)
(0.0545711 6.32349e-06 1.0844e-18)
(0.0567969 -5.75832e-05 2.15343e-20)
(0.055001 -5.91714e-05 -1.75752e-19)
(0.0551035 -5.99561e-05 1.27083e-19)
(0.0551074 -6.0812e-05 2.54667e-19)
(0.0553654 -6.13405e-05 1.60815e-19)
(0.0565359 -6.57093e-05 5.26055e-20)
(0.0547588 -6.66789e-05 -2.64354e-21)
(0.0548566 -6.76167e-05 3.19394e-22)
(0.0548576 -6.86503e-05 -2.60605e-22)
(0.0551702 -7.29719e-05 -1.85682e-19)
(0.0562862 -7.96899e-05 1.30216e-22)
(0.054527 -7.95817e-05 1.72177e-19)
(0.0546205 -8.07637e-05 -1.31436e-20)
(0.0548734 -8.10069e-05 -2.54902e-19)
)
;

boundaryField
{
    inlet
    {
        type            calculated;
        value           uniform (0 0 0);
    }
    outlet2
    {
        type            calculated;
        value           uniform (0 0 0);
    }
    outlet1
    {
        type            calculated;
        value           nonuniform List<vector> 0();
    }
    wall
    {
        type            calculated;
        value           uniform (0 0 0);
    }
    symmetryBottom
    {
        type            symmetry;
    }
    symmetryZ0
    {
        type            symmetry;
    }
    symmetryZ05
    {
        type            symmetry;
    }
    procBoundary1to0
    {
        type            processor;
        value           uniform (0 0 0);
    }
}


// ************************************************************************* //
