/*--------------------------------*- C++ -*----------------------------------*\
| =========                 |                                                 |
| \\      /  F ield         | OpenFOAM: The Open Source CFD Toolbox           |
|  \\    /   O peration     | Version:  2412                                  |
|   \\  /    A nd           | Website:  www.openfoam.com                      |
|    \\/     M anipulation  |                                                 |
\*---------------------------------------------------------------------------*/
FoamFile
{
    version     2.0;
    format      ascii;
    arch        "LSB;label=32;scalar=64";
    class       volVectorField;
    location    "4.7e-06";
    object      U;
}
// * * * * * * * * * * * * * * * * * * * * * * * * * * * * * * * * * * * * * //

dimensions      [0 0 0 0 0 0 0];

internalField   nonuniform List<vector> 
84
(
(2636.39 -0.0129851 0)
(2614.8 -0.0522154 0)
(2625.73 -0.0336226 -8.47501e-15)
(2636.39 -3.89378 0)
(2614.8 -4.99541 0)
(2625.73 -4.69512 -8.18511e-15)
(2636.39 -3.88106 0)
(2614.8 -4.97784 0)
(2625.73 -4.67894 1.11046e-14)
(2636.39 -3.88106 0)
(2614.8 -4.97784 0)
(2625.73 -4.67894 -1.43731e-14)
(2636.39 -3.88106 0)
(2614.8 -4.97784 0)
(2625.73 -4.67894 -2.24978e-14)
(2636.39 -3.88106 0)
(2614.8 -4.97784 0)
(2625.73 -4.67894 1.4024e-14)
(2636.39 -3.88106 0)
(2614.8 -4.97784 0)
(2625.73 -4.67894 -1.64911e-14)
(2636.39 -3.88106 0)
(2614.8 -4.97784 0)
(2625.73 -4.67894 -1.89491e-14)
(2636.39 -3.88106 0)
(2614.8 -4.97784 0)
(2625.73 -4.67894 8.24166e-15)
(2636.39 -3.88106 0)
(2614.8 -4.97784 0)
(2625.73 -4.67894 -1.63225e-14)
(2636.39 -3.88106 0)
(2614.8 -4.97761 0)
(2625.73 -4.67882 -4.27663e-14)
(2636.39 -3.88156 0)
(2614.8 -4.94518 0)
(2625.73 -4.66294 0)
(2631.54 4.95083 4.52454e-16)
(2630.61 4.7304 5.41052e-15)
(2630.77 4.74075 5.57997e-16)
(2633.19 -4.79147 4.17474e-16)
(2632.18 -4.86562 5.67973e-15)
(2632.34 -4.85876 -1.2116e-16)
(2633.11 -4.79299 -5.99603e-16)
(2632.11 -4.86646 -2.64484e-15)
(2632.27 -4.85571 -1.0205e-14)
(2633.04 -4.79394 7.71915e-16)
(2632.04 -4.86734 -1.29478e-16)
(2632.13 -4.93573 7.56616e-18)
(2631.5 0.288824 8.89471e-15)
(2632.97 -4.79604 -1.46635e-15)
(2631.97 -4.8693 3.19411e-17)
(2632.06 -4.93775 -8.75405e-17)
(2632.14 -4.93154 9.00652e-15)
(2632.87 -4.59287 -7.6617e-16)
(2631.88 -4.67614 -5.57806e-15)
(2631.97 -4.74223 2.69089e-16)
(2632.04 -4.73633 5.99493e-15)
(2632.71 -3.64829 9.29755e-16)
(2631.71 -3.77054 -7.94013e-17)
(2631.8 -3.8207 -1.22219e-17)
(2631.88 -3.81608 -4.74252e-17)
(2632.6 -3.05972 1.15884e-15)
(2631.6 -3.20602 -5.72565e-15)
(2631.68 -3.24679 6.10764e-15)
(2631.76 -3.23993 7.59708e-17)
(2632.48 -2.71107 -4.33416e-16)
(2631.44 -2.87143 -8.59744e-15)
(2631.53 -2.90557 -7.94759e-15)
(2631.53 -2.94783 9.67477e-15)
(2631.48 0.304926 5.22911e-14)
(2632.54 -2.66899 9.98116e-16)
(2631.61 -2.83115 -8.40912e-15)
(2631.69 -2.86344 6.06934e-15)
(2631.68 -2.90411 1.21618e-14)
(2631.77 -2.91579 7.64425e-15)
(2632.48 -3.05962 2.44947e-15)
(2631.53 -3.20438 -1.2704e-16)
(2631.61 -3.24375 1.53221e-17)
(2631.61 -3.29327 -1.25017e-17)
(2631.7 -3.48087 -8.85733e-15)
(2632.44 -3.727 6.09003e-18)
(2631.49 -3.84064 8.30933e-15)
(2631.57 -3.89113 -6.33246e-16)
(2631.65 -3.88497 -1.22247e-14)
)
;

boundaryField
{
    inlet
    {
        type            calculated;
        value           uniform (0 0 0);
    }
    outlet2
    {
        type            calculated;
        value           uniform (0 0 0);
    }
    outlet1
    {
        type            calculated;
        value           nonuniform List<vector> 0();
    }
    wall
    {
        type            calculated;
        value           uniform (0 0 0);
    }
    symmetryBottom
    {
        type            symmetry;
    }
    symmetryZ0
    {
        type            symmetry;
    }
    symmetryZ05
    {
        type            symmetry;
    }
    procBoundary1to0
    {
        type            processor;
        value           uniform (0 0 0);
    }
}


// ************************************************************************* //
