/*--------------------------------*- C++ -*----------------------------------*\
| =========                 |                                                 |
| \\      /  F ield         | OpenFOAM: The Open Source CFD Toolbox           |
|  \\    /   O peration     | Version:  2412                                  |
|   \\  /    A nd           | Website:  www.openfoam.com                      |
|    \\/     M anipulation  |                                                 |
\*---------------------------------------------------------------------------*/
FoamFile
{
    version     2.0;
    format      ascii;
    arch        "LSB;label=32;scalar=64";
    class       volScalarField;
    location    "9.6e-06";
    object      E;
}
// * * * * * * * * * * * * * * * * * * * * * * * * * * * * * * * * * * * * * //

dimensions      [0 0 0 0 0 0 0];

internalField   nonuniform List<scalar> 
84
(
102.198
50.3514
54.3442
54.1563
54.1822
54.2034
54.1683
54.8655
109.696
54.1391
58.4787
58.3411
58.4342
58.5241
58.5629
59.3012
108.145
54.2753
57.9577
57.874
57.9571
58.0403
58.0719
58.8054
106.885
53.3589
57.538
57.3944
57.4766
57.4978
58.2261
107.016
52.7771
56.9991
56.844
56.9171
56.9284
57.6515
106.056
52.2838
56.4609
56.2989
56.363
56.3646
57.0825
105.088
51.7985
55.9275
55.7591
55.8143
55.8063
56.519
103.818
51.5681
55.3743
55.2258
55.2707
55.2535
55.9611
102.739
50.8948
54.9006
54.7246
54.7063
55.4086
102.285
50.3751
54.376
54.1915
54.1643
54.8615
101.275
49.9044
53.8541
53.6637
53.6276
54.3197
99.387
49.5696
53.325
53.1367
53.1492
53.0963
53.7837
)
;

boundaryField
{
    inlet
    {
        type            calculated;
        value           nonuniform List<scalar> 0();
    }
    outlet2
    {
        type            calculated;
        value           uniform 0;
    }
    outlet1
    {
        type            calculated;
        value           uniform 0;
    }
    wall
    {
        type            calculated;
        value           uniform 0;
    }
    symmetryBottom
    {
        type            symmetry;
    }
    symmetryZ0
    {
        type            symmetry;
    }
    symmetryZ05
    {
        type            symmetry;
    }
    procBoundary0to1
    {
        type            processor;
        value           uniform 0;
    }
}


// ************************************************************************* //
