/*--------------------------------*- C++ -*----------------------------------*\
| =========                 |                                                 |
| \\      /  F ield         | OpenFOAM: The Open Source CFD Toolbox           |
|  \\    /   O peration     | Version:  2412                                  |
|   \\  /    A nd           | Website:  www.openfoam.com                      |
|    \\/     M anipulation  |                                                 |
\*---------------------------------------------------------------------------*/
FoamFile
{
    version     2.0;
    format      ascii;
    arch        "LSB;label=32;scalar=64";
    class       volVectorField;
    location    "9.6e-06";
    object      U;
}
// * * * * * * * * * * * * * * * * * * * * * * * * * * * * * * * * * * * * * //

dimensions      [0 0 0 0 0 0 0];

internalField   nonuniform List<vector> 
84
(
(2636.39 -0.189748 1.17042e-14)
(2623.62 -0.222977 -1.2535e-14)
(2626.51 -0.222899 -3.27458e-14)
(2626.32 -0.229952 1.64379e-14)
(2626.32 -0.236853 -1.76536e-15)
(2626.32 -0.24406 -1.2151e-15)
(2626.28 -0.252487 2.9491e-14)
(2626.54 -0.25036 2.532e-15)
(2637.88 -9.91767 1.06949e-14)
(2625.28 -10.2295 -1.12404e-14)
(2628.15 -10.326 -3.80257e-14)
(2627.98 -10.4827 8.87848e-15)
(2628.01 -10.6397 -6.66135e-14)
(2628.04 -10.8008 8.44687e-15)
(2628.03 -10.9851 5.32411e-14)
(2628.27 -10.9475 9.36337e-15)
(2637.59 -9.29448 -4.88904e-14)
(2625.57 -11.6273 1.10629e-14)
(2627.99 -10.4171 1.85085e-14)
(2627.87 -10.6948 -1.44596e-15)
(2627.9 -10.8515 -3.87005e-15)
(2627.92 -11.0192 2.92259e-14)
(2627.91 -11.2108 -1.97729e-14)
(2628.15 -11.1717 -2.37068e-14)
(2637.36 -9.03336 -4.89129e-14)
(2625.11 -10.75 3.40233e-14)
(2627.9 -10.682 2.265e-15)
(2627.73 -10.8567 -6.36354e-14)
(2627.76 -11.0239 5.77131e-14)
(2627.75 -11.2157 9.82576e-15)
(2628 -11.1766 -1.87702e-14)
(2637.5 -10.2448 -2.60135e-14)
(2624.88 -10.5714 -9.55427e-15)
(2627.76 -10.692 7.6912e-16)
(2627.58 -10.858 1.26738e-15)
(2627.61 -11.0256 -2.03448e-14)
(2627.59 -11.2175 1.248e-14)
(2627.84 -11.1783 3.61914e-14)
(2637.36 -10.2696 -1.71896e-14)
(2624.73 -10.5695 3.67661e-14)
(2627.61 -10.6937 -5.98411e-15)
(2627.43 -10.8596 4.27843e-14)
(2627.46 -11.0273 -3.93865e-14)
(2627.44 -11.2192 3.50143e-14)
(2627.68 -11.18 -5.90455e-14)
(2637.22 -10.2657 -1.62977e-15)
(2624.58 -10.5797 3.45145e-14)
(2627.46 -10.6944 -2.5278e-15)
(2627.28 -10.8613 -2.3026e-15)
(2627.3 -11.0289 3.36916e-14)
(2627.28 -11.221 1.81322e-15)
(2627.53 -11.1817 3.07971e-14)
(2637 -9.50753 2.51227e-16)
(2624.62 -11.8498 5.87774e-16)
(2627.29 -10.5808 -1.17188e-16)
(2627.13 -10.8694 -4.43602e-16)
(2627.15 -11.0303 1.21375e-16)
(2627.12 -11.2227 2.13177e-15)
(2627.37 -11.1834 -2.52151e-14)
(2636.81 -9.13719 6.1121e-14)
(2624.33 -10.9269 -2.93037e-15)
(2627.16 -10.8531 -6.44882e-14)
(2626.98 -11.0327 -2.37275e-14)
(2626.96 -11.2244 3.68406e-14)
(2627.21 -11.1851 -2.30527e-15)
(2636.8 -10.4157 -2.10973e-14)
(2624.14 -10.737 6.02139e-15)
(2627.01 -10.8636 -3.65864e-14)
(2626.83 -11.034 3.23606e-14)
(2626.81 -11.2261 5.96923e-14)
(2627.06 -11.1868 -5.58286e-15)
(2636.64 -9.78156 -2.85574e-14)
(2623.99 -10.8643 4.25287e-15)
(2626.86 -10.8587 -4.84293e-15)
(2626.67 -11.036 5.62969e-14)
(2626.65 -11.2279 6.42344e-14)
(2626.9 -11.1886 1.09288e-15)
(2636.38 -0.617808 -1.53213e-15)
(2623.94 -13.2228 2.57942e-16)
(2626.7 -10.5142 -3.18783e-15)
(2626.52 -10.8739 4.06167e-14)
(2626.53 -11.0323 -3.38156e-15)
(2626.49 -11.2251 2.93316e-15)
(2626.75 -11.1861 -3.25321e-14)
)
;

boundaryField
{
    inlet
    {
        type            calculated;
        value           nonuniform List<vector> 0();
    }
    outlet2
    {
        type            calculated;
        value           uniform (0 0 0);
    }
    outlet1
    {
        type            calculated;
        value           uniform (0 0 0);
    }
    wall
    {
        type            calculated;
        value           uniform (0 0 0);
    }
    symmetryBottom
    {
        type            symmetry;
    }
    symmetryZ0
    {
        type            symmetry;
    }
    symmetryZ05
    {
        type            symmetry;
    }
    procBoundary0to1
    {
        type            processor;
        value           uniform (0 0 0);
    }
}


// ************************************************************************* //
