/*--------------------------------*- C++ -*----------------------------------*\
| =========                 |                                                 |
| \\      /  F ield         | OpenFOAM: The Open Source CFD Toolbox           |
|  \\    /   O peration     | Version:  2412                                  |
|   \\  /    A nd           | Website:  www.openfoam.com                      |
|    \\/     M anipulation  |                                                 |
\*---------------------------------------------------------------------------*/
FoamFile
{
    version     2.0;
    format      ascii;
    arch        "LSB;label=32;scalar=64";
    class       volScalarField;
    location    "2.5e-06";
    object      rho;
}
// * * * * * * * * * * * * * * * * * * * * * * * * * * * * * * * * * * * * * //

dimensions      [0 0 0 0 0 0 0];

internalField   nonuniform List<scalar> 
84
(
2.81089e-05
1.79929e-05
1.89321e-05
2.81107e-05
1.79962e-05
1.89351e-05
2.81102e-05
1.79959e-05
1.89347e-05
2.81102e-05
1.79959e-05
1.89347e-05
2.81102e-05
1.79959e-05
1.89347e-05
2.81102e-05
1.79959e-05
1.89347e-05
2.81102e-05
1.79959e-05
1.89347e-05
2.81102e-05
1.79959e-05
1.89347e-05
2.81102e-05
1.79959e-05
1.89347e-05
2.81102e-05
1.79959e-05
1.89347e-05
2.81102e-05
1.79959e-05
1.89347e-05
2.81103e-05
1.7995e-05
1.8934e-05
2.41448e-05
2.39266e-05
2.39889e-05
2.46956e-05
2.44614e-05
2.45252e-05
2.46384e-05
2.44059e-05
2.44693e-05
2.45814e-05
2.43505e-05
2.43631e-05
2.39016e-05
2.45244e-05
2.42952e-05
2.43069e-05
2.43648e-05
2.44675e-05
2.42399e-05
2.42507e-05
2.43085e-05
2.44107e-05
2.41847e-05
2.41947e-05
2.42524e-05
2.43543e-05
2.41299e-05
2.41391e-05
2.41965e-05
2.42968e-05
2.40741e-05
2.40824e-05
2.40847e-05
2.39121e-05
2.42425e-05
2.40214e-05
2.40289e-05
2.40304e-05
2.40883e-05
2.41856e-05
2.39661e-05
2.39727e-05
2.39735e-05
2.40374e-05
2.41298e-05
2.39118e-05
2.39176e-05
2.39748e-05
)
;

boundaryField
{
    inlet
    {
        type            calculated;
        value           uniform 0;
    }
    outlet2
    {
        type            calculated;
        value           uniform 0;
    }
    outlet1
    {
        type            calculated;
        value           nonuniform List<scalar> 0();
    }
    wall
    {
        type            calculated;
        value           uniform 0;
    }
    symmetryBottom
    {
        type            symmetry;
    }
    symmetryZ0
    {
        type            symmetry;
    }
    symmetryZ05
    {
        type            symmetry;
    }
    procBoundary1to0
    {
        type            processor;
        value           uniform 0;
    }
}


// ************************************************************************* //
