/*--------------------------------*- C++ -*----------------------------------*\
| =========                 |                                                 |
| \\      /  F ield         | OpenFOAM: The Open Source CFD Toolbox           |
|  \\    /   O peration     | Version:  2412                                  |
|   \\  /    A nd           | Website:  www.openfoam.com                      |
|    \\/     M anipulation  |                                                 |
\*---------------------------------------------------------------------------*/
FoamFile
{
    version     2.0;
    format      ascii;
    arch        "LSB;label=32;scalar=64";
    class       volVectorField;
    location    "2.5e-06";
    object      U;
}
// * * * * * * * * * * * * * * * * * * * * * * * * * * * * * * * * * * * * * //

dimensions      [0 0 0 0 0 0 0];

internalField   nonuniform List<vector> 
84
(
(2636.39 -0.00388373 0)
(2628.32 -0.0169328 0)
(2630.19 -0.0140747 -4.04093e-15)
(2636.39 -2.26163 0)
(2628.32 -2.55352 0)
(2630.19 -2.52091 -3.87535e-15)
(2636.39 -2.25753 0)
(2628.32 -2.54877 0)
(2630.19 -2.51623 5.68945e-15)
(2636.39 -2.25753 0)
(2628.32 -2.54877 0)
(2630.19 -2.51623 -7.33953e-15)
(2636.39 -2.25753 0)
(2628.32 -2.54877 0)
(2630.19 -2.51623 -1.23688e-14)
(2636.39 -2.25753 0)
(2628.32 -2.54877 0)
(2630.19 -2.51623 7.09122e-15)
(2636.39 -2.25753 0)
(2628.32 -2.54877 0)
(2630.19 -2.51623 -8.90618e-15)
(2636.39 -2.25753 0)
(2628.32 -2.54877 0)
(2630.19 -2.51623 -1.06372e-14)
(2636.39 -2.25753 0)
(2628.32 -2.54877 0)
(2630.19 -2.51623 4.04017e-15)
(2636.39 -2.25753 0)
(2628.32 -2.54877 0)
(2630.19 -2.51623 -8.90667e-15)
(2636.39 -2.25754 0)
(2628.32 -2.54873 0)
(2630.19 -2.5162 -2.1852e-14)
(2636.39 -2.25785 0)
(2628.32 -2.53689 0)
(2630.19 -2.50709 0)
(2633.62 2.61141 1.26862e-16)
(2633.35 2.55834 2.78402e-15)
(2633.4 2.55916 2.77661e-16)
(2634.48 -2.54988 1.19341e-16)
(2634.18 -2.58774 2.93916e-15)
(2634.23 -2.58581 -3.02944e-17)
(2634.44 -2.55046 -1.90342e-16)
(2634.14 -2.58819 -1.34441e-15)
(2634.19 -2.58526 -5.96541e-15)
(2634.4 -2.55093 2.45249e-16)
(2634.11 -2.58866 -5.10844e-17)
(2634.12 -2.62531 1.70788e-18)
(2633.81 0.0747713 4.26889e-15)
(2634.36 -2.55167 -1.0974e-15)
(2634.07 -2.58936 6.76386e-19)
(2634.09 -2.62604 -4.48107e-17)
(2634.12 -2.62418 4.32945e-15)
(2634.31 -2.42943 -2.40635e-16)
(2634.02 -2.46981 -2.96165e-15)
(2634.04 -2.50495 3.17245e-17)
(2634.07 -2.5032 2.84833e-15)
(2634.23 -1.94191 2.78917e-16)
(2633.94 -1.99148 -1.43102e-17)
(2633.95 -2.01935 -1.58594e-17)
(2633.99 -2.01797 -2.35269e-17)
(2634.18 -1.62921 3.70163e-16)
(2633.88 -1.68472 -2.81774e-15)
(2633.9 -1.70804 3.14804e-15)
(2633.94 -1.70613 2.68112e-17)
(2634.13 -1.46351 -1.25165e-16)
(2633.83 -1.52197 -4.32047e-15)
(2633.84 -1.54264 -4.22167e-15)
(2633.84 -1.56493 4.70985e-15)
(2633.8 0.0797868 2.86129e-14)
(2634.14 -1.45995 3.12216e-16)
(2633.86 -1.51833 -4.35256e-15)
(2633.87 -1.53864 2.99514e-15)
(2633.87 -1.56061 7.09599e-15)
(2633.91 -1.5633 4.31635e-15)
(2634.11 -1.65474 7.63214e-16)
(2633.83 -1.70925 -1.83697e-17)
(2633.84 -1.73258 5.9324e-18)
(2633.84 -1.75821 -2.1603e-18)
(2633.89 -1.80687 -4.36615e-15)
(2634.09 -2.00483 3.20771e-18)
(2633.81 -2.05184 4.20646e-15)
(2633.82 -2.08033 -1.66256e-16)
(2633.86 -2.07855 -7.46998e-15)
)
;

boundaryField
{
    inlet
    {
        type            calculated;
        value           uniform (0 0 0);
    }
    outlet2
    {
        type            calculated;
        value           uniform (0 0 0);
    }
    outlet1
    {
        type            calculated;
        value           nonuniform List<vector> 0();
    }
    wall
    {
        type            calculated;
        value           uniform (0 0 0);
    }
    symmetryBottom
    {
        type            symmetry;
    }
    symmetryZ0
    {
        type            symmetry;
    }
    symmetryZ05
    {
        type            symmetry;
    }
    procBoundary1to0
    {
        type            processor;
        value           uniform (0 0 0);
    }
}


// ************************************************************************* //
