/*--------------------------------*- C++ -*----------------------------------*\
| =========                 |                                                 |
| \\      /  F ield         | OpenFOAM: The Open Source CFD Toolbox           |
|  \\    /   O peration     | Version:  2412                                  |
|   \\  /    A nd           | Website:  www.openfoam.com                      |
|    \\/     M anipulation  |                                                 |
\*---------------------------------------------------------------------------*/
FoamFile
{
    version     2.0;
    format      ascii;
    arch        "LSB;label=32;scalar=64";
    class       volScalarField;
    location    "1.7e-06";
    object      E_dof0;
}
// * * * * * * * * * * * * * * * * * * * * * * * * * * * * * * * * * * * * * //

dimensions      [0 0 0 0 0 0 0];

internalField   nonuniform List<scalar> 
84
(
99.4313
74.054
75.6605
99.4342
74.0613
75.6672
99.4334
74.0607
75.6666
99.4334
74.0607
75.6666
99.4334
74.0607
75.6666
99.4334
74.0607
75.6666
99.4334
74.0607
75.6666
99.4334
74.0607
75.6666
99.4334
74.0607
75.6666
99.4334
74.0607
75.6666
99.4334
74.0607
75.6666
99.4335
74.0586
75.6648
89.3674
88.9874
89.1368
90.7693
90.3695
90.5212
90.626
90.2282
90.3793
90.4829
90.0871
90.1103
88.9464
90.34
89.9462
89.9673
90.1132
90.1981
89.8063
89.8252
89.971
90.0593
89.6694
89.6863
89.832
89.922
89.534
89.5489
89.6942
89.7991
89.4123
89.4255
89.4321
88.9626
89.6153
89.232
89.2425
89.2464
89.3927
89.4835
89.1019
89.1105
89.1126
89.2687
89.3449
88.9651
88.9717
89.1164
)
;

boundaryField
{
    inlet
    {
        type            calculated;
        value           uniform 99.4306;
    }
    outlet2
    {
        type            calculated;
        value           uniform 99.4306;
    }
    outlet1
    {
        type            calculated;
        value           nonuniform List<scalar> 0();
    }
    wall
    {
        type            calculated;
        value           uniform 99.4306;
    }
    symmetryBottom
    {
        type            symmetry;
    }
    symmetryZ0
    {
        type            symmetry;
    }
    symmetryZ05
    {
        type            symmetry;
    }
    procBoundary1to0
    {
        type            processor;
        value           uniform 99.4306;
    }
}


// ************************************************************************* //
