/*--------------------------------*- C++ -*----------------------------------*\
| =========                 |                                                 |
| \\      /  F ield         | OpenFOAM: The Open Source CFD Toolbox           |
|  \\    /   O peration     | Version:  2412                                  |
|   \\  /    A nd           | Website:  www.openfoam.com                      |
|    \\/     M anipulation  |                                                 |
\*---------------------------------------------------------------------------*/
FoamFile
{
    version     2.0;
    format      ascii;
    arch        "LSB;label=32;scalar=64";
    class       volScalarField;
    location    "1.7e-06";
    object      T;
}
// * * * * * * * * * * * * * * * * * * * * * * * * * * * * * * * * * * * * * //

dimensions      [0 0 0 0 0 0 0];

internalField   nonuniform List<scalar> 
84
(
200.001
199.981
200.005
199.997
199.973
199.997
199.996
199.972
199.996
199.996
199.972
199.996
199.996
199.972
199.996
199.996
199.972
199.996
199.996
199.972
199.996
199.996
199.972
199.996
199.996
199.972
199.996
199.996
199.972
199.996
199.996
199.972
199.996
199.997
199.968
199.993
201.024
201.011
201.011
200.003
200
200
200.003
200
200
200.003
200
200
200.002
200.003
200
200
200
200.197
200.191
200.194
200.194
200.919
200.907
200.92
200.92
201.598
201.58
201.603
201.602
204.229
204.186
204.249
204.311
199.893
198.3
198.311
198.286
198.261
198.245
199.598
199.599
199.593
199.587
199.595
199.834
199.832
199.83
199.83
)
;

boundaryField
{
    inlet
    {
        type            calculated;
        value           uniform 0;
    }
    outlet2
    {
        type            calculated;
        value           uniform 0;
    }
    outlet1
    {
        type            calculated;
        value           nonuniform List<scalar> 0();
    }
    wall
    {
        type            calculated;
        value           uniform 0;
    }
    symmetryBottom
    {
        type            symmetry;
    }
    symmetryZ0
    {
        type            symmetry;
    }
    symmetryZ05
    {
        type            symmetry;
    }
    procBoundary1to0
    {
        type            processor;
        value           uniform 0;
    }
}


// ************************************************************************* //
