/*--------------------------------*- C++ -*----------------------------------*\
| =========                 |                                                 |
| \\      /  F ield         | OpenFOAM: The Open Source CFD Toolbox           |
|  \\    /   O peration     | Version:  2412                                  |
|   \\  /    A nd           | Website:  www.openfoam.com                      |
|    \\/     M anipulation  |                                                 |
\*---------------------------------------------------------------------------*/
FoamFile
{
    version     2.0;
    format      ascii;
    arch        "LSB;label=32;scalar=64";
    class       volVectorField;
    location    "1.7e-06";
    object      U;
}
// * * * * * * * * * * * * * * * * * * * * * * * * * * * * * * * * * * * * * //

dimensions      [0 0 0 0 0 0 0];

internalField   nonuniform List<vector> 
84
(
(2636.39 -0.00176118 0)
(2631.39 -0.00947404 0)
(2632.11 -0.00842087 -2.47393e-15)
(2636.39 -1.58903 0)
(2631.39 -1.72836 0)
(2632.11 -1.71837 -2.4737e-15)
(2636.39 -1.58705 0)
(2631.39 -1.7262 0)
(2632.11 -1.71623 3.92885e-15)
(2636.39 -1.58705 0)
(2631.39 -1.7262 0)
(2632.11 -1.71623 -5.09329e-15)
(2636.39 -1.58705 0)
(2631.39 -1.7262 0)
(2632.11 -1.71623 -8.51265e-15)
(2636.39 -1.58705 0)
(2631.39 -1.7262 0)
(2632.11 -1.71623 4.94745e-15)
(2636.39 -1.58705 0)
(2631.39 -1.7262 0)
(2632.11 -1.71623 -5.96636e-15)
(2636.39 -1.58705 0)
(2631.39 -1.7262 0)
(2632.11 -1.71623 -7.05753e-15)
(2636.39 -1.58705 0)
(2631.39 -1.7262 0)
(2632.11 -1.71623 2.54642e-15)
(2636.39 -1.58705 0)
(2631.39 -1.7262 0)
(2632.11 -1.71623 -5.96654e-15)
(2636.39 -1.58706 0)
(2631.39 -1.72619 0)
(2632.11 -1.71621 -1.49155e-14)
(2636.39 -1.58728 0)
(2631.39 -1.71899 0)
(2632.11 -1.71004 0)
(2634.45 1.76702 5.74289e-17)
(2634.32 1.74948 1.87124e-15)
(2634.35 1.74947 1.84285e-16)
(2635.03 -1.73427 5.30574e-17)
(2634.89 -1.75955 1.9474e-15)
(2634.92 -1.75863 -1.27495e-17)
(2635 -1.73462 -8.87366e-17)
(2634.87 -1.75986 -9.02124e-16)
(2634.89 -1.7585 -3.90023e-15)
(2634.98 -1.73493 1.16219e-16)
(2634.84 -1.76017 -3.19059e-17)
(2634.85 -1.78514 7.34796e-19)
(2634.64 0.0321708 2.78976e-15)
(2634.95 -1.73533 -8.82615e-16)
(2634.82 -1.76056 -5.66689e-18)
(2634.82 -1.78554 -3.00912e-17)
(2634.85 -1.78462 2.7165e-15)
(2634.92 -1.64904 -1.13754e-16)
(2634.78 -1.67521 -1.95664e-15)
(2634.79 -1.69906 -4.39734e-18)
(2634.81 -1.6982 1.87991e-15)
(2634.86 -1.32175 1.27764e-16)
(2634.73 -1.35088 -5.09603e-18)
(2634.73 -1.36997 -1.27107e-17)
(2634.76 -1.36929 -1.55947e-17)
(2634.83 -1.10977 1.77933e-16)
(2634.69 -1.14085 -1.85477e-15)
(2634.7 -1.15691 2.05446e-15)
(2634.72 -1.15603 1.5347e-17)
(2634.8 -1.00194 -5.79698e-17)
(2634.66 -1.0339 -2.90907e-15)
(2634.66 -1.04832 -2.88376e-15)
(2634.66 -1.06346 3.09396e-15)
(2634.64 0.0346045 2.00998e-14)
(2634.8 -1.00388 1.49438e-16)
(2634.67 -1.03572 -2.9779e-15)
(2634.67 -1.05003 1.97558e-15)
(2634.67 -1.06506 4.82343e-15)
(2634.7 -1.06618 3.14648e-15)
(2634.78 -1.13309 3.65827e-16)
(2634.65 -1.16371 -5.34663e-18)
(2634.66 -1.17995 3.84175e-18)
(2634.66 -1.19723 -3.94103e-19)
(2634.68 -1.21814 -2.87542e-15)
(2634.77 -1.36955 2.16989e-18)
(2634.64 -1.39765 2.83257e-15)
(2634.64 -1.41729 -7.4292e-17)
(2634.67 -1.41646 -4.88977e-15)
)
;

boundaryField
{
    inlet
    {
        type            calculated;
        value           uniform (0 0 0);
    }
    outlet2
    {
        type            calculated;
        value           uniform (0 0 0);
    }
    outlet1
    {
        type            calculated;
        value           nonuniform List<vector> 0();
    }
    wall
    {
        type            calculated;
        value           uniform (0 0 0);
    }
    symmetryBottom
    {
        type            symmetry;
    }
    symmetryZ0
    {
        type            symmetry;
    }
    symmetryZ05
    {
        type            symmetry;
    }
    procBoundary1to0
    {
        type            processor;
        value           uniform (0 0 0);
    }
}


// ************************************************************************* //
