/*--------------------------------*- C++ -*----------------------------------*\
| =========                 |                                                 |
| \\      /  F ield         | OpenFOAM: The Open Source CFD Toolbox           |
|  \\    /   O peration     | Version:  2412                                  |
|   \\  /    A nd           | Website:  www.openfoam.com                      |
|    \\/     M anipulation  |                                                 |
\*---------------------------------------------------------------------------*/
FoamFile
{
    version     2.0;
    format      ascii;
    arch        "LSB;label=32;scalar=64";
    class       volScalarField;
    location    "9.6e-06";
    object      rho;
}
// * * * * * * * * * * * * * * * * * * * * * * * * * * * * * * * * * * * * * //

dimensions      [0 0 0 0 0 0 0];

internalField   nonuniform List<scalar> 
84
(
3.38396e-05
1.66853e-06
4.59256e-06
3.38518e-05
1.69391e-06
4.39014e-06
3.38594e-05
1.69181e-06
4.41613e-06
3.38597e-05
1.68877e-06
4.44246e-06
3.386e-05
1.68574e-06
4.46876e-06
3.38603e-05
1.68273e-06
4.4949e-06
3.38606e-05
1.67972e-06
4.5209e-06
3.38609e-05
1.67673e-06
4.54674e-06
3.38612e-05
1.67375e-06
4.57243e-06
3.38615e-05
1.67079e-06
4.59797e-06
3.38618e-05
1.66783e-06
4.62336e-06
3.38623e-05
1.66484e-06
4.64859e-06
1.64349e-05
1.53763e-05
1.45582e-05
1.76402e-05
1.64636e-05
1.55843e-05
1.75032e-05
1.63396e-05
1.54834e-05
1.73479e-05
1.61518e-05
1.6402e-05
1.37566e-05
1.7192e-05
1.60177e-05
1.61419e-05
1.51941e-05
1.70377e-05
1.58791e-05
1.59976e-05
1.50812e-05
1.68847e-05
1.57417e-05
1.58565e-05
1.49493e-05
1.6733e-05
1.56054e-05
1.57163e-05
1.48252e-05
1.65826e-05
1.54716e-05
1.5537e-05
1.56351e-05
1.39806e-05
1.64335e-05
1.53376e-05
1.54027e-05
1.54432e-05
1.45577e-05
1.62857e-05
1.52048e-05
1.52671e-05
1.53032e-05
1.4448e-05
1.61393e-05
1.50721e-05
1.51684e-05
1.4326e-05
)
;

boundaryField
{
    inlet
    {
        type            calculated;
        value           uniform 0;
    }
    outlet2
    {
        type            calculated;
        value           uniform 0;
    }
    outlet1
    {
        type            calculated;
        value           nonuniform List<scalar> 0();
    }
    wall
    {
        type            calculated;
        value           uniform 0;
    }
    symmetryBottom
    {
        type            symmetry;
    }
    symmetryZ0
    {
        type            symmetry;
    }
    symmetryZ05
    {
        type            symmetry;
    }
    procBoundary1to0
    {
        type            processor;
        value           uniform 0;
    }
}


// ************************************************************************* //
