/*--------------------------------*- C++ -*----------------------------------*\
| =========                 |                                                 |
| \\      /  F ield         | OpenFOAM: The Open Source CFD Toolbox           |
|  \\    /   O peration     | Version:  2412                                  |
|   \\  /    A nd           | Website:  www.openfoam.com                      |
|    \\/     M anipulation  |                                                 |
\*---------------------------------------------------------------------------*/
FoamFile
{
    version     2.0;
    format      ascii;
    arch        "LSB;label=32;scalar=64";
    class       volScalarField;
    location    "9.6e-06";
    object      T;
}
// * * * * * * * * * * * * * * * * * * * * * * * * * * * * * * * * * * * * * //

dimensions      [0 0 0 0 0 0 0];

internalField   nonuniform List<scalar> 
84
(
200.062
166.29
197.195
200.018
166.727
199.013
200.047
166.639
199.108
200.047
166.478
199.145
200.047
166.316
199.182
200.047
166.154
199.218
200.047
165.992
199.253
200.047
165.829
199.286
200.047
165.667
199.319
200.047
165.504
199.35
200.048
165.34
199.381
200.048
165.181
199.412
203.695
203.528
203.413
200.043
199.999
199.897
200.037
199.994
199.901
200.037
199.985
199.997
199.761
200.037
199.985
200.011
199.841
200.037
199.985
200.006
199.891
200.037
199.985
200.006
199.892
200.037
199.985
200.005
199.899
200.037
199.986
199.996
199.99
199.797
200.037
199.986
199.996
200.01
199.84
200.036
199.986
199.996
200.01
199.815
200.037
199.986
200.007
199.878
)
;

boundaryField
{
    inlet
    {
        type            calculated;
        value           uniform 0;
    }
    outlet2
    {
        type            calculated;
        value           uniform 0;
    }
    outlet1
    {
        type            calculated;
        value           nonuniform List<scalar> 0();
    }
    wall
    {
        type            calculated;
        value           uniform 0;
    }
    symmetryBottom
    {
        type            symmetry;
    }
    symmetryZ0
    {
        type            symmetry;
    }
    symmetryZ05
    {
        type            symmetry;
    }
    procBoundary1to0
    {
        type            processor;
        value           uniform 0;
    }
}


// ************************************************************************* //
