/*--------------------------------*- C++ -*----------------------------------*\
| =========                 |                                                 |
| \\      /  F ield         | OpenFOAM: The Open Source CFD Toolbox           |
|  \\    /   O peration     | Version:  2412                                  |
|   \\  /    A nd           | Website:  www.openfoam.com                      |
|    \\/     M anipulation  |                                                 |
\*---------------------------------------------------------------------------*/
FoamFile
{
    version     2.0;
    format      ascii;
    arch        "LSB;label=32;scalar=64";
    class       volScalarField;
    location    "6.5e-06";
    object      rho;
}
// * * * * * * * * * * * * * * * * * * * * * * * * * * * * * * * * * * * * * //

dimensions      [0 0 0 0 0 0 0];

internalField   nonuniform List<scalar> 
84
(
2.73356e-05
1.75696e-05
1.85997e-05
1.85294e-05
1.85346e-05
1.85359e-05
1.85374e-05
1.86744e-05
2.89682e-05
1.86448e-05
1.97508e-05
1.96942e-05
1.97176e-05
1.97376e-05
1.97584e-05
1.99022e-05
2.86464e-05
1.86743e-05
1.96086e-05
1.9571e-05
1.95908e-05
1.96088e-05
1.96275e-05
1.97705e-05
2.85225e-05
1.8436e-05
1.95202e-05
1.94611e-05
1.94809e-05
1.94973e-05
1.96397e-05
2.84715e-05
1.83116e-05
1.93968e-05
1.93357e-05
1.93535e-05
1.93678e-05
1.95095e-05
2.82966e-05
1.81962e-05
1.9273e-05
1.92104e-05
1.92261e-05
1.92383e-05
1.93793e-05
2.8121e-05
1.8082e-05
1.91496e-05
1.90855e-05
1.90992e-05
1.91092e-05
1.92495e-05
2.78715e-05
1.80498e-05
1.90183e-05
1.89641e-05
1.89749e-05
1.8983e-05
1.91226e-05
2.77108e-05
1.786e-05
1.89062e-05
1.88394e-05
1.88491e-05
1.89878e-05
2.76243e-05
1.77525e-05
1.87975e-05
1.87293e-05
1.87374e-05
1.88754e-05
2.74082e-05
1.76402e-05
1.86708e-05
1.86014e-05
1.86072e-05
1.87446e-05
2.7084e-05
1.75697e-05
1.85476e-05
1.84818e-05
1.84854e-05
1.84857e-05
1.86225e-05
)
;

boundaryField
{
    inlet
    {
        type            calculated;
        value           nonuniform List<scalar> 0();
    }
    outlet2
    {
        type            calculated;
        value           uniform 0;
    }
    outlet1
    {
        type            calculated;
        value           uniform 0;
    }
    wall
    {
        type            calculated;
        value           uniform 0;
    }
    symmetryBottom
    {
        type            symmetry;
    }
    symmetryZ0
    {
        type            symmetry;
    }
    symmetryZ05
    {
        type            symmetry;
    }
    procBoundary0to1
    {
        type            processor;
        value           uniform 0;
    }
}


// ************************************************************************* //
