/*--------------------------------*- C++ -*----------------------------------*\
| =========                 |                                                 |
| \\      /  F ield         | OpenFOAM: The Open Source CFD Toolbox           |
|  \\    /   O peration     | Version:  2412                                  |
|   \\  /    A nd           | Website:  www.openfoam.com                      |
|    \\/     M anipulation  |                                                 |
\*---------------------------------------------------------------------------*/
FoamFile
{
    version     2.0;
    format      ascii;
    arch        "LSB;label=32;scalar=64";
    class       volScalarField;
    location    "6.5e-06";
    object      T;
}
// * * * * * * * * * * * * * * * * * * * * * * * * * * * * * * * * * * * * * //

dimensions      [0 0 0 0 0 0 0];

internalField   nonuniform List<scalar> 
84
(
203.95
203.998
204.126
204.178
204.244
204.31
204.379
204.372
199.975
199.938
200.007
199.996
199.997
199.997
199.997
199.998
199.952
199.94
200.005
199.997
199.997
199.997
199.997
199.998
199.983
199.935
200.007
199.996
199.997
199.997
199.998
199.983
199.94
200.013
200.002
200.003
200.003
200.004
200.529
200.53
200.599
200.593
200.598
200.603
200.602
203.507
203.612
203.715
203.762
203.82
203.88
203.872
206.13
206.628
206.639
206.751
206.858
206.969
206.955
216.93
219.579
219.649
220.017
220.385
220.333
192.874
192.7
192.666
192.534
192.41
192.425
198.166
198.226
198.248
198.209
198.18
198.184
199.814
199.173
199.284
199.259
199.248
199.235
199.237
)
;

boundaryField
{
    inlet
    {
        type            calculated;
        value           nonuniform List<scalar> 0();
    }
    outlet2
    {
        type            calculated;
        value           uniform 0;
    }
    outlet1
    {
        type            calculated;
        value           uniform 0;
    }
    wall
    {
        type            calculated;
        value           uniform 0;
    }
    symmetryBottom
    {
        type            symmetry;
    }
    symmetryZ0
    {
        type            symmetry;
    }
    symmetryZ05
    {
        type            symmetry;
    }
    procBoundary0to1
    {
        type            processor;
        value           uniform 0;
    }
}


// ************************************************************************* //
