/*--------------------------------*- C++ -*----------------------------------*\
| =========                 |                                                 |
| \\      /  F ield         | OpenFOAM: The Open Source CFD Toolbox           |
|  \\    /   O peration     | Version:  2412                                  |
|   \\  /    A nd           | Website:  www.openfoam.com                      |
|    \\/     M anipulation  |                                                 |
\*---------------------------------------------------------------------------*/
FoamFile
{
    version     2.0;
    format      ascii;
    arch        "LSB;label=32;scalar=64";
    class       volVectorField;
    location    "6.5e-06";
    object      U;
}
// * * * * * * * * * * * * * * * * * * * * * * * * * * * * * * * * * * * * * //

dimensions      [0 0 0 0 0 0 0];

internalField   nonuniform List<vector> 
84
(
(2634.21 6.63793 6.6889e-15)
(2626.57 6.76259 -1.00658e-14)
(2628.61 6.85202 -1.59509e-14)
(2628.39 6.95138 1.05117e-14)
(2628.39 7.05302 -1.53665e-15)
(2628.37 7.15771 1.3302e-15)
(2628.34 7.26554 1.53833e-14)
(2628.48 7.25333 1.7593e-15)
(2636.38 -6.82776 6.35592e-15)
(2628.87 -7.06536 -9.41148e-15)
(2630.91 -7.12231 -1.96354e-14)
(2630.73 -7.23459 2.60139e-15)
(2630.76 -7.34474 -3.69486e-14)
(2630.78 -7.4587 9.16121e-15)
(2630.79 -7.57623 3.00485e-14)
(2630.92 -7.56164 5.77849e-15)
(2636.14 -6.15976 -2.56342e-14)
(2629.06 -8.00452 7.89165e-15)
(2630.76 -7.0071 1.10647e-14)
(2630.64 -7.24476 -1.45363e-15)
(2630.66 -7.34573 -5.51637e-16)
(2630.67 -7.46021 1.4436e-14)
(2630.69 -7.57777 -1.25418e-14)
(2630.81 -7.56317 -1.36874e-14)
(2636.08 -6.42059 -2.46194e-14)
(2628.71 -7.2115 1.79084e-14)
(2630.72 -7.23198 -2.01524e-15)
(2630.54 -7.34797 -3.37102e-14)
(2630.57 -7.46172 3.38918e-14)
(2630.58 -7.57935 5.29547e-15)
(2630.71 -7.56474 -1.25683e-14)
(2636.1 -6.94574 -1.52847e-14)
(2628.58 -7.15853 -6.15563e-15)
(2630.62 -7.2386 7.04621e-16)
(2630.44 -7.35184 2.14196e-16)
(2630.46 -7.46583 -1.16178e-14)
(2630.48 -7.58359 1.02766e-14)
(2630.6 -7.56896 2.11468e-14)
(2635.98 -6.72447 -9.59634e-15)
(2628.44 -6.91775 1.93979e-14)
(2630.49 -7.00094 -2.14173e-15)
(2630.3 -7.11272 2.17639e-14)
(2630.32 -7.22566 -2.01395e-14)
(2630.33 -7.3424 1.68944e-14)
(2630.46 -7.32822 -3.60107e-14)
(2635.77 -5.41049 -3.7247e-18)
(2628.17 -5.57946 1.78361e-14)
(2630.23 -5.63632 -2.05911e-15)
(2630.04 -5.72745 8.29614e-17)
(2630.05 -5.81813 1.79964e-14)
(2630.06 -5.91197 2.03717e-15)
(2630.19 -5.90062 1.76729e-14)
(2635.58 -4.01481 2.54638e-16)
(2628.11 -5.55096 2.98587e-16)
(2630.02 -4.71556 -1.07107e-16)
(2629.85 -4.90001 -2.7733e-16)
(2629.86 -4.97088 -5.51688e-17)
(2629.87 -5.05272 1.32427e-16)
(2630 -5.04288 -1.42364e-14)
(2635.38 -3.84829 3.53272e-14)
(2627.67 -4.31477 -5.63873e-15)
(2629.76 -4.334 -3.78701e-14)
(2629.55 -4.40464 -1.12317e-14)
(2629.56 -4.47465 2.10638e-14)
(2629.7 -4.46626 -2.7516e-15)
(2635.52 -4.06299 -1.24983e-14)
(2628.1 -4.16517 2.0285e-15)
(2630.1 -4.21596 -1.75808e-14)
(2629.92 -4.28019 1.97215e-14)
(2629.93 -4.34531 3.27436e-14)
(2630.06 -4.33755 -3.83087e-15)
(2635.46 -4.28937 -1.63001e-14)
(2627.95 -4.82137 2.78255e-15)
(2629.97 -4.80289 -1.32446e-16)
(2629.78 -4.88327 3.4708e-14)
(2629.79 -4.95894 3.50921e-14)
(2629.92 -4.94988 9.12516e-16)
(2635.35 -0.679228 -1.34014e-15)
(2627.9 -6.63553 1.54763e-16)
(2629.9 -5.59068 -7.74257e-18)
(2629.71 -5.76871 2.10453e-14)
(2629.72 -5.85116 -2.52026e-15)
(2629.72 -5.94233 1.86058e-16)
(2629.85 -5.93166 -1.72879e-14)
)
;

boundaryField
{
    inlet
    {
        type            calculated;
        value           nonuniform List<vector> 0();
    }
    outlet2
    {
        type            calculated;
        value           uniform (0 0 0);
    }
    outlet1
    {
        type            calculated;
        value           uniform (0 0 0);
    }
    wall
    {
        type            calculated;
        value           uniform (0 0 0);
    }
    symmetryBottom
    {
        type            symmetry;
    }
    symmetryZ0
    {
        type            symmetry;
    }
    symmetryZ05
    {
        type            symmetry;
    }
    procBoundary0to1
    {
        type            processor;
        value           uniform (0 0 0);
    }
}


// ************************************************************************* //
