/*--------------------------------*- C++ -*----------------------------------*\
| =========                 |                                                 |
| \\      /  F ield         | OpenFOAM: The Open Source CFD Toolbox           |
|  \\    /   O peration     | Version:  2412                                  |
|   \\  /    A nd           | Website:  www.openfoam.com                      |
|    \\/     M anipulation  |                                                 |
\*---------------------------------------------------------------------------*/
FoamFile
{
    version     2.0;
    format      ascii;
    arch        "LSB;label=32;scalar=64";
    class       volScalarField;
    location    "2.8e-06";
    object      E;
}
// * * * * * * * * * * * * * * * * * * * * * * * * * * * * * * * * * * * * * //

dimensions      [0 0 0 0 0 0 0];

internalField   nonuniform List<scalar> 
84
(
98.9929
82.1099
82.8709
82.85
82.8517
82.853
82.8543
83.1056
101.587
84.3091
85.1216
85.1343
85.1712
85.2088
85.2476
85.5042
101.21
84.1787
84.8842
84.8989
84.9319
84.9656
85.0005
85.2565
100.996
83.8852
84.6862
84.6927
84.7231
84.754
85.0096
100.821
83.6533
84.4516
84.4545
84.4811
84.5081
84.7631
100.553
83.4256
84.2185
84.2178
84.2407
84.2638
84.5183
100.291
83.2032
83.9906
83.9864
84.0056
84.0249
84.2789
99.9737
83.0374
83.7631
83.7585
83.774
83.7896
84.0431
99.7606
82.7973
83.5737
83.5633
83.576
83.829
99.4692
82.5042
83.2754
83.2605
83.2685
83.5207
99.1886
82.2904
83.0549
83.0365
83.0409
83.2927
98.6723
82.0975
82.8249
82.8045
82.8052
82.8055
83.0568
)
;

boundaryField
{
    inlet
    {
        type            calculated;
        value           nonuniform List<scalar> 0();
    }
    outlet2
    {
        type            calculated;
        value           uniform 0;
    }
    outlet1
    {
        type            calculated;
        value           uniform 0;
    }
    wall
    {
        type            calculated;
        value           uniform 0;
    }
    symmetryBottom
    {
        type            symmetry;
    }
    symmetryZ0
    {
        type            symmetry;
    }
    symmetryZ05
    {
        type            symmetry;
    }
    procBoundary0to1
    {
        type            processor;
        value           uniform 0;
    }
}


// ************************************************************************* //
