/*--------------------------------*- C++ -*----------------------------------*\
| =========                 |                                                 |
| \\      /  F ield         | OpenFOAM: The Open Source CFD Toolbox           |
|  \\    /   O peration     | Version:  2412                                  |
|   \\  /    A nd           | Website:  www.openfoam.com                      |
|    \\/     M anipulation  |                                                 |
\*---------------------------------------------------------------------------*/
FoamFile
{
    version     2.0;
    format      ascii;
    arch        "LSB;label=32;scalar=64";
    class       volScalarField;
    location    "2.8e-06";
    object      rho_dof0;
}
// * * * * * * * * * * * * * * * * * * * * * * * * * * * * * * * * * * * * * //

dimensions      [0 0 0 0 0 0 0];

internalField   nonuniform List<scalar> 
84
(
2.79954e-05
2.32727e-05
2.34832e-05
2.34776e-05
2.34782e-05
2.34786e-05
2.34791e-05
2.35494e-05
2.87132e-05
2.38823e-05
2.41069e-05
2.41107e-05
2.4121e-05
2.41315e-05
2.41423e-05
2.42141e-05
2.86081e-05
2.38454e-05
2.40405e-05
2.40447e-05
2.4054e-05
2.40634e-05
2.40732e-05
2.41448e-05
2.85484e-05
2.37636e-05
2.39851e-05
2.3987e-05
2.39956e-05
2.40042e-05
2.40757e-05
2.84992e-05
2.36986e-05
2.39194e-05
2.39204e-05
2.39278e-05
2.39354e-05
2.40067e-05
2.84239e-05
2.36345e-05
2.38538e-05
2.38537e-05
2.38601e-05
2.38666e-05
2.39378e-05
2.83486e-05
2.35706e-05
2.37883e-05
2.37872e-05
2.37926e-05
2.37979e-05
2.3869e-05
2.82576e-05
2.35221e-05
2.37226e-05
2.37213e-05
2.37256e-05
2.37299e-05
2.38008e-05
2.81876e-05
2.34456e-05
2.366e-05
2.3657e-05
2.36603e-05
2.3731e-05
2.81298e-05
2.33837e-05
2.35971e-05
2.35932e-05
2.35955e-05
2.36661e-05
2.80454e-05
2.3319e-05
2.35304e-05
2.35254e-05
2.35267e-05
2.35971e-05
2.78988e-05
2.32638e-05
2.34648e-05
2.34592e-05
2.34594e-05
2.34595e-05
2.35299e-05
)
;

boundaryField
{
    inlet
    {
        type            calculated;
        value           nonuniform List<scalar> 0();
    }
    outlet2
    {
        type            calculated;
        value           uniform 2.81085e-05;
    }
    outlet1
    {
        type            calculated;
        value           uniform 2.81085e-05;
    }
    wall
    {
        type            calculated;
        value           uniform 2.81085e-05;
    }
    symmetryBottom
    {
        type            symmetry;
    }
    symmetryZ0
    {
        type            symmetry;
    }
    symmetryZ05
    {
        type            symmetry;
    }
    procBoundary0to1
    {
        type            processor;
        value           uniform 2.81085e-05;
    }
}


// ************************************************************************* //
