/*--------------------------------*- C++ -*----------------------------------*\
| =========                 |                                                 |
| \\      /  F ield         | OpenFOAM: The Open Source CFD Toolbox           |
|  \\    /   O peration     | Version:  2412                                  |
|   \\  /    A nd           | Website:  www.openfoam.com                      |
|    \\/     M anipulation  |                                                 |
\*---------------------------------------------------------------------------*/
FoamFile
{
    version     2.0;
    format      ascii;
    arch        "LSB;label=32;scalar=64";
    class       volVectorField;
    location    "2.8e-06";
    object      rhoU;
}
// * * * * * * * * * * * * * * * * * * * * * * * * * * * * * * * * * * * * * //

dimensions      [0 0 0 0 0 0 0];

internalField   nonuniform List<vector> 
84
(
(0.0737868 8.21049e-05 8.41149e-20)
(0.0612696 6.95168e-05 -8.46575e-20)
(0.0618307 7.1144e-05 -1.95531e-19)
(0.0618154 7.21824e-05 9.14648e-20)
(0.0618167 7.32703e-05 -4.31076e-21)
(0.0618177 7.4391e-05 1.0924e-20)
(0.0618187 7.55466e-05 1.81956e-19)
(0.0620051 7.57171e-05 4.04409e-20)
(0.0757055 -8.46756e-05 8.87592e-20)
(0.0628977 -7.23476e-05 -8.23159e-20)
(0.0634968 -7.40044e-05 -2.3599e-19)
(0.0635064 -7.51342e-05 1.3248e-20)
(0.0635338 -7.63145e-05 -4.19034e-19)
(0.0635616 -7.75322e-05 6.29873e-20)
(0.0635904 -7.87894e-05 3.40115e-19)
(0.0637806 -7.89548e-05 7.15635e-20)
(0.0754266 -8.03525e-05 -3.9423e-19)
(0.0628006 -7.55429e-05 5.9521e-20)
(0.0633208 -7.36364e-05 1.19801e-19)
(0.0633318 -7.49485e-05 -6.77035e-21)
(0.0633563 -7.61173e-05 -3.28206e-21)
(0.0633813 -7.73289e-05 1.69792e-19)
(0.0634071 -7.85795e-05 -1.34875e-19)
(0.063597 -7.87446e-05 -1.71316e-19)
(0.0752682 -8.22722e-05 -3.90532e-19)
(0.0625833 -7.31521e-05 1.7928e-19)
(0.0631738 -7.47664e-05 -9.08342e-21)
(0.0631789 -7.59206e-05 -3.8025e-19)
(0.0632014 -7.71261e-05 3.57161e-19)
(0.0632244 -7.83702e-05 7.40317e-20)
(0.0634139 -7.85351e-05 -1.34917e-19)
(0.075138 -8.53584e-05 -2.12409e-19)
(0.0624113 -7.28831e-05 -7.22725e-20)
(0.0629998 -7.45872e-05 3.42991e-21)
(0.0630022 -7.57339e-05 1.02358e-21)
(0.0630219 -7.69336e-05 -1.22504e-19)
(0.0630419 -7.81716e-05 9.39982e-20)
(0.0632311 -7.83362e-05 2.49991e-19)
(0.074938 -8.13813e-05 -1.29221e-19)
(0.062241 -6.94193e-05 2.10249e-19)
(0.0628256 -7.10557e-05 -9.36044e-21)
(0.0628252 -7.21551e-05 2.51354e-19)
(0.0628422 -7.33056e-05 -2.23808e-19)
(0.0628593 -7.44931e-05 1.88405e-19)
(0.063048 -7.4651e-05 -4.09154e-19)
(0.074737 -6.54571e-05 -2.60244e-23)
(0.0620704 -5.58129e-05 2.05609e-19)
(0.0626507 -5.71176e-05 -9.22435e-21)
(0.0626477 -5.79989e-05 -3.94316e-22)
(0.0626618 -5.89207e-05 2.1092e-19)
(0.062676 -5.9872e-05 3.22146e-20)
(0.0628644 -5.99998e-05 2.20586e-19)
(0.0744951 -5.18749e-05 1.37005e-21)
(0.0619413 -4.97746e-05 9.32568e-22)
(0.062476 -4.80819e-05 -6.99528e-22)
(0.0624725 -4.89765e-05 -1.22191e-21)
(0.0624838 -4.97528e-05 -2.00291e-22)
(0.0624952 -5.05585e-05 3.79964e-22)
(0.0626831 -5.06671e-05 -1.74929e-19)
(0.0743091 -4.86595e-05 4.68291e-19)
(0.0617379 -4.30518e-05 -2.03387e-20)
(0.0623095 -4.40262e-05 -4.20437e-19)
(0.0623013 -4.47095e-05 -1.5397e-19)
(0.0623101 -4.5424e-05 2.21538e-19)
(0.0624976 -4.55228e-05 -1.33575e-22)
(0.0741569 -5.0205e-05 -1.62668e-19)
(0.061576 -4.26651e-05 7.28008e-21)
(0.062145 -4.36746e-05 -2.07218e-19)
(0.0621344 -4.4338e-05 2.15538e-19)
(0.0621406 -4.50327e-05 3.647e-19)
(0.0623277 -4.51317e-05 -1.76368e-20)
(0.0739338 -5.45842e-05 -2.21652e-19)
(0.0614048 -4.80701e-05 9.70665e-21)
(0.0619685 -4.91027e-05 -5.10771e-23)
(0.0619551 -4.98554e-05 3.68961e-19)
(0.0619584 -5.06404e-05 3.97647e-19)
(0.0621451 -5.07516e-05 2.64204e-20)
(0.0735459 -4.0121e-06 -8.74211e-21)
(0.0612591 -6.03696e-05 2.4817e-22)
(0.0617951 -5.7768e-05 -5.08893e-24)
(0.0617802 -5.87773e-05 2.37526e-19)
(0.0617808 -5.96816e-05 -1.11739e-20)
(0.061781 -6.06178e-05 3.23527e-22)
(0.0619673 -6.07527e-05 -2.18176e-19)
)
;

boundaryField
{
    inlet
    {
        type            calculated;
        value           nonuniform List<vector> 0();
    }
    outlet2
    {
        type            calculated;
        value           uniform (0 0 0);
    }
    outlet1
    {
        type            calculated;
        value           uniform (0 0 0);
    }
    wall
    {
        type            calculated;
        value           uniform (0 0 0);
    }
    symmetryBottom
    {
        type            symmetry;
    }
    symmetryZ0
    {
        type            symmetry;
    }
    symmetryZ05
    {
        type            symmetry;
    }
    procBoundary0to1
    {
        type            processor;
        value           uniform (0 0 0);
    }
}


// ************************************************************************* //
