/*--------------------------------*- C++ -*----------------------------------*\
| =========                 |                                                 |
| \\      /  F ield         | OpenFOAM: The Open Source CFD Toolbox           |
|  \\    /   O peration     | Version:  2412                                  |
|   \\  /    A nd           | Website:  www.openfoam.com                      |
|    \\/     M anipulation  |                                                 |
\*---------------------------------------------------------------------------*/
FoamFile
{
    version     2.0;
    format      ascii;
    arch        "LSB;label=32;scalar=64";
    class       volScalarField;
    location    "3.6e-06";
    object      E_dof0;
}
// * * * * * * * * * * * * * * * * * * * * * * * * * * * * * * * * * * * * * //

dimensions      [0 0 0 0 0 0 0];

internalField   nonuniform List<scalar> 
84
(
99.4336
49.5245
56.2513
99.4459
49.5415
56.2665
99.4428
49.5395
56.2643
99.4428
49.5395
56.2643
99.4428
49.5395
56.2643
99.4428
49.5395
56.2643
99.4428
49.5395
56.2643
99.4428
49.5395
56.2643
99.4428
49.5395
56.2643
99.4428
49.5395
56.2643
99.4428
49.5395
56.2643
99.4429
49.5355
56.2615
80.1081
78.5893
78.9254
82.8354
81.1767
81.5266
82.553
80.9087
81.2555
82.2714
80.6415
80.7381
78.4799
81.9905
80.3749
80.4669
80.7498
81.7114
80.11
80.1974
80.4796
81.4386
79.8509
79.9339
80.2154
81.1704
79.5962
79.6748
79.9547
80.9271
79.3637
79.4384
79.4493
78.5504
80.5758
79.0338
79.1027
79.1087
79.3896
80.3161
78.7867
78.8514
78.8543
79.1801
80.0487
78.5326
78.593
78.8707
)
;

boundaryField
{
    inlet
    {
        type            calculated;
        value           uniform 99.4306;
    }
    outlet2
    {
        type            calculated;
        value           uniform 99.4306;
    }
    outlet1
    {
        type            calculated;
        value           nonuniform List<scalar> 0();
    }
    wall
    {
        type            calculated;
        value           uniform 99.4306;
    }
    symmetryBottom
    {
        type            symmetry;
    }
    symmetryZ0
    {
        type            symmetry;
    }
    symmetryZ05
    {
        type            symmetry;
    }
    procBoundary1to0
    {
        type            processor;
        value           uniform 99.4306;
    }
}


// ************************************************************************* //
