/*--------------------------------*- C++ -*----------------------------------*\
| =========                 |                                                 |
| \\      /  F ield         | OpenFOAM: The Open Source CFD Toolbox           |
|  \\    /   O peration     | Version:  2412                                  |
|   \\  /    A nd           | Website:  www.openfoam.com                      |
|    \\/     M anipulation  |                                                 |
\*---------------------------------------------------------------------------*/
FoamFile
{
    version     2.0;
    format      ascii;
    arch        "LSB;label=32;scalar=64";
    class       volVectorField;
    location    "3.6e-06";
    object      U;
}
// * * * * * * * * * * * * * * * * * * * * * * * * * * * * * * * * * * * * * //

dimensions      [0 0 0 0 0 0 0];

internalField   nonuniform List<vector> 
84
(
(2636.39 -0.00790418 0)
(2622.85 -0.0311587 0)
(2627.76 -0.023211 -6.29226e-15)
(2636.39 -3.11548 0)
(2622.85 -3.726 0)
(2627.76 -3.61545 -6.0954e-15)
(2636.39 -3.10751 0)
(2622.85 -3.71599 0)
(2627.76 -3.60582 8.14366e-15)
(2636.39 -3.10751 0)
(2622.85 -3.71599 0)
(2627.76 -3.60582 -1.05358e-14)
(2636.39 -3.10751 0)
(2622.85 -3.71599 0)
(2627.76 -3.60582 -1.76538e-14)
(2636.39 -3.10751 0)
(2622.85 -3.71599 0)
(2627.76 -3.60582 1.03381e-14)
(2636.39 -3.10751 0)
(2622.85 -3.71599 0)
(2627.76 -3.60582 -1.33642e-14)
(2636.39 -3.10751 0)
(2622.85 -3.71599 0)
(2627.76 -3.60582 -1.50694e-14)
(2636.39 -3.10751 0)
(2622.85 -3.71599 0)
(2627.76 -3.60582 6.14385e-15)
(2636.39 -3.10751 0)
(2622.85 -3.71599 0)
(2627.76 -3.60582 -1.33656e-14)
(2636.39 -3.10751 0)
(2622.85 -3.71588 0)
(2627.76 -3.60575 -3.22856e-14)
(2636.39 -3.10793 0)
(2622.85 -3.6957 0)
(2627.76 -3.59293 0)
(2632.55 3.77956 2.68351e-16)
(2631.99 3.6543 4.15182e-15)
(2632.08 3.65825 4.13391e-16)
(2633.8 -3.67086 2.49892e-16)
(2633.19 -3.72659 4.25264e-15)
(2633.28 -3.72263 -6.83912e-17)
(2633.74 -3.67184 -3.71092e-16)
(2633.14 -3.72725 -1.9973e-15)
(2633.23 -3.72108 -8.53522e-15)
(2633.69 -3.67255 4.78694e-16)
(2633.08 -3.72792 -8.47726e-17)
(2633.13 -3.78053 3.94431e-18)
(2632.66 0.163572 6.55112e-15)
(2633.63 -3.67389 -1.33256e-15)
(2633.03 -3.72918 1.41622e-17)
(2633.07 -3.78184 -6.5759e-17)
(2633.13 -3.77813 6.49943e-15)
(2633.56 -3.50775 -4.72514e-16)
(2632.96 -3.56904 -4.29908e-15)
(2633 -3.6197 1.25538e-16)
(2633.06 -3.61619 4.32816e-15)
(2633.44 -2.79445 5.7021e-16)
(2632.84 -2.87772 -3.83865e-17)
(2632.88 -2.91715 -1.64537e-17)
(2632.94 -2.91439 -3.50841e-17)
(2633.36 -2.34333 7.29102e-16)
(2632.75 -2.44048 -4.19231e-15)
(2632.79 -2.4731 4.59849e-15)
(2632.85 -2.4691 4.7923e-17)
(2633.28 -2.09055 -2.59759e-16)
(2632.65 -2.19521 -6.35523e-15)
(2632.69 -2.22343 -6.08743e-15)
(2632.69 -2.25563 7.19504e-15)
(2632.65 0.173469 4.0623e-14)
(2633.3 -2.07219 6.20987e-16)
(2632.74 -2.17728 -6.42139e-15)
(2632.78 -2.20457 4.51902e-15)
(2632.78 -2.23594 1.00417e-14)
(2632.84 -2.24218 5.88168e-15)
(2633.26 -2.36206 1.50711e-15)
(2632.69 -2.45763 -5.66212e-17)
(2632.73 -2.48974 9.67239e-18)
(2632.73 -2.52712 -6.46707e-18)
(2632.79 -2.63351 -6.59407e-15)
(2633.23 -2.87013 4.64544e-18)
(2632.66 -2.94803 6.21341e-15)
(2632.69 -2.98803 -3.57897e-16)
(2632.75 -2.98438 -1.01501e-14)
)
;

boundaryField
{
    inlet
    {
        type            calculated;
        value           uniform (0 0 0);
    }
    outlet2
    {
        type            calculated;
        value           uniform (0 0 0);
    }
    outlet1
    {
        type            calculated;
        value           nonuniform List<vector> 0();
    }
    wall
    {
        type            calculated;
        value           uniform (0 0 0);
    }
    symmetryBottom
    {
        type            symmetry;
    }
    symmetryZ0
    {
        type            symmetry;
    }
    symmetryZ05
    {
        type            symmetry;
    }
    procBoundary1to0
    {
        type            processor;
        value           uniform (0 0 0);
    }
}


// ************************************************************************* //
