/*--------------------------------*- C++ -*----------------------------------*\
| =========                 |                                                 |
| \\      /  F ield         | OpenFOAM: The Open Source CFD Toolbox           |
|  \\    /   O peration     | Version:  2412                                  |
|   \\  /    A nd           | Website:  www.openfoam.com                      |
|    \\/     M anipulation  |                                                 |
\*---------------------------------------------------------------------------*/
FoamFile
{
    version     2.0;
    format      ascii;
    arch        "LSB;label=32;scalar=64";
    class       volScalarField;
    location    "3.5e-06";
    object      rho;
}
// * * * * * * * * * * * * * * * * * * * * * * * * * * * * * * * * * * * * * //

dimensions      [0 0 0 0 0 0 0];

internalField   nonuniform List<scalar> 
84
(
2.79097e-05
2.21346e-05
2.24586e-05
2.24474e-05
2.24483e-05
2.24489e-05
2.24496e-05
2.25346e-05
2.88048e-05
2.28601e-05
2.32048e-05
2.32046e-05
2.32172e-05
2.32299e-05
2.3243e-05
2.33302e-05
2.86644e-05
2.28263e-05
2.31238e-05
2.31254e-05
2.31367e-05
2.31481e-05
2.31598e-05
2.32468e-05
2.85913e-05
2.27186e-05
2.30583e-05
2.30561e-05
2.30665e-05
2.30769e-05
2.31637e-05
2.85369e-05
2.26404e-05
2.29795e-05
2.2976e-05
2.29851e-05
2.29942e-05
2.30808e-05
2.84426e-05
2.25638e-05
2.29007e-05
2.28959e-05
2.29038e-05
2.29116e-05
2.29979e-05
2.83483e-05
2.24875e-05
2.2822e-05
2.28161e-05
2.28227e-05
2.28291e-05
2.29153e-05
2.82299e-05
2.24354e-05
2.27426e-05
2.27372e-05
2.27424e-05
2.27476e-05
2.28335e-05
2.81426e-05
2.23383e-05
2.26677e-05
2.26595e-05
2.26636e-05
2.27493e-05
2.80755e-05
2.2265e-05
2.25933e-05
2.2584e-05
2.2587e-05
2.26725e-05
2.79675e-05
2.2188e-05
2.25131e-05
2.25026e-05
2.25043e-05
2.25895e-05
2.77858e-05
2.21255e-05
2.24345e-05
2.24237e-05
2.24241e-05
2.24242e-05
2.25092e-05
)
;

boundaryField
{
    inlet
    {
        type            calculated;
        value           nonuniform List<scalar> 0();
    }
    outlet2
    {
        type            calculated;
        value           uniform 0;
    }
    outlet1
    {
        type            calculated;
        value           uniform 0;
    }
    wall
    {
        type            calculated;
        value           uniform 0;
    }
    symmetryBottom
    {
        type            symmetry;
    }
    symmetryZ0
    {
        type            symmetry;
    }
    symmetryZ05
    {
        type            symmetry;
    }
    procBoundary0to1
    {
        type            processor;
        value           uniform 0;
    }
}


// ************************************************************************* //
