/*--------------------------------*- C++ -*----------------------------------*\
| =========                 |                                                 |
| \\      /  F ield         | OpenFOAM: The Open Source CFD Toolbox           |
|  \\    /   O peration     | Version:  2412                                  |
|   \\  /    A nd           | Website:  www.openfoam.com                      |
|    \\/     M anipulation  |                                                 |
\*---------------------------------------------------------------------------*/
FoamFile
{
    version     2.0;
    format      ascii;
    arch        "LSB;label=32;scalar=64";
    class       volVectorField;
    location    "3.5e-06";
    object      rhoU_dof0;
}
// * * * * * * * * * * * * * * * * * * * * * * * * * * * * * * * * * * * * * //

dimensions      [0 0 0 0 0 0 0];

internalField   nonuniform List<vector> 
84
(
(0.0735542 0.000101837 1.03152e-19)
(0.0582504 8.22639e-05 -1.03825e-19)
(0.0591139 8.46414e-05 -2.25709e-19)
(0.0590836 8.58491e-05 1.12632e-19)
(0.0590858 8.71378e-05 -7.54664e-21)
(0.0590872 8.84646e-05 1.34818e-20)
(0.0590886 8.98324e-05 2.15819e-19)
(0.0593139 9.00903e-05 4.23026e-20)
(0.075947 -0.000106136 1.07416e-19)
(0.0601877 -8.66164e-05 -1.01712e-19)
(0.0611069 -8.90404e-05 -2.7277e-19)
(0.0611059 -9.03898e-05 1.9316e-20)
(0.0611393 -9.18201e-05 -4.94568e-19)
(0.0611728 -9.32954e-05 8.3428e-20)
(0.0612075 -9.48189e-05 3.98084e-19)
(0.0614387 -9.50735e-05 8.18445e-20)
(0.0755742 -9.946e-05 -4.69623e-19)
(0.0600989 -9.1694e-05 7.50253e-20)
(0.0608921 -8.8389e-05 1.44086e-19)
(0.0608961 -9.01124e-05 -9.922e-21)
(0.0609259 -9.15191e-05 -4.57972e-21)
(0.060956 -9.29852e-05 2.06379e-19)
(0.0609871 -9.44987e-05 -1.66687e-19)
(0.0612178 -9.47528e-05 -2.04018e-19)
(0.0753801 -0.000102096 -4.60505e-19)
(0.059813 -8.75205e-05 2.1819e-19)
(0.0607187 -8.98431e-05 -1.36861e-20)
(0.0607123 -9.12189e-05 -4.43799e-19)
(0.0607399 -9.26762e-05 4.2102e-19)
(0.0607675 -9.41796e-05 8.49325e-20)
(0.0609976 -9.44331e-05 -1.65896e-19)
(0.0752364 -0.000106817 -2.62456e-19)
(0.0596059 -8.70726e-05 -8.31681e-20)
(0.0605098 -8.9573e-05 5.08921e-21)
(0.0605001 -9.09354e-05 1.54812e-21)
(0.0605244 -9.23838e-05 -1.50605e-19)
(0.0605484 -9.38779e-05 1.16173e-19)
(0.0607779 -9.4131e-05 2.85023e-19)
(0.074986 -0.000102016 -1.59886e-19)
(0.0594026 -8.30624e-05 2.41284e-19)
(0.0603005 -8.54702e-05 -1.42912e-20)
(0.0602876 -8.67808e-05 2.90473e-19)
(0.0603085 -8.81747e-05 -2.60939e-19)
(0.0603291 -8.9613e-05 2.25207e-19)
(0.0605579 -8.98558e-05 -4.79004e-19)
(0.0747342 -8.1968e-05 -3.86167e-23)
(0.0591989 -6.67333e-05 2.38353e-19)
(0.0600905 -6.86431e-05 -1.40374e-20)
(0.0600744 -6.96927e-05 -2.8682e-22)
(0.0600919 -7.08074e-05 2.41318e-19)
(0.0601089 -7.19575e-05 3.65455e-20)
(0.0603372 -7.21537e-05 2.45953e-19)
(0.0744196 -6.39936e-05 2.2114e-21)
(0.0590603 -6.05956e-05 1.53225e-21)
(0.0598793 -5.77172e-05 -8.96102e-22)
(0.0598647 -5.89097e-05 -1.83332e-21)
(0.0598786 -5.98438e-05 -3.47203e-22)
(0.0598923 -6.082e-05 6.72822e-22)
(0.0601199 -6.09863e-05 -2.15167e-19)
(0.0741871 -6.02185e-05 5.63033e-19)
(0.0588018 -5.13578e-05 -3.1477e-20)
(0.05968 -5.27569e-05 -4.84898e-19)
(0.0596578 -5.35663e-05 -1.80468e-19)
(0.0596687 -5.44253e-05 2.70682e-19)
(0.0598957 -5.4576e-05 -7.5514e-21)
(0.0740111 -6.2409e-05 -2.02033e-19)
(0.0586109 -5.06207e-05 1.12188e-20)
(0.0594861 -5.20908e-05 -2.35607e-19)
(0.0594611 -5.28671e-05 2.50746e-19)
(0.059469 -5.3694e-05 4.23547e-19)
(0.0596954 -5.38445e-05 -2.79529e-20)
(0.0737255 -6.73454e-05 -2.74729e-19)
(0.0584071 -5.71904e-05 1.50207e-20)
(0.0592737 -5.86368e-05 -2.13942e-22)
(0.0592455 -5.95248e-05 4.34197e-19)
(0.05925 -6.04618e-05 4.60283e-19)
(0.0594757 -6.06308e-05 2.63523e-20)
(0.0732449 -6.10099e-06 -1.33493e-20)
(0.0582419 -7.29712e-05 4.85081e-22)
(0.0590661 -6.88165e-05 -1.27223e-23)
(0.059037 -7.01108e-05 2.73353e-19)
(0.0590381 -7.11836e-05 -1.66939e-20)
(0.0590384 -7.22984e-05 6.22283e-22)
(0.0592636 -7.25029e-05 -2.46261e-19)
)
;

boundaryField
{
    inlet
    {
        type            calculated;
        value           nonuniform List<vector> 0();
    }
    outlet2
    {
        type            calculated;
        value           uniform (0.0741049 0 0);
    }
    outlet1
    {
        type            calculated;
        value           uniform (0.0741049 0 0);
    }
    wall
    {
        type            calculated;
        value           uniform (0.0741049 0 0);
    }
    symmetryBottom
    {
        type            symmetry;
    }
    symmetryZ0
    {
        type            symmetry;
    }
    symmetryZ05
    {
        type            symmetry;
    }
    procBoundary0to1
    {
        type            processor;
        value           uniform (0.0741049 0 0);
    }
}


// ************************************************************************* //
