/*--------------------------------*- C++ -*----------------------------------*\
| =========                 |                                                 |
| \\      /  F ield         | OpenFOAM: The Open Source CFD Toolbox           |
|  \\    /   O peration     | Version:  2412                                  |
|   \\  /    A nd           | Website:  www.openfoam.com                      |
|    \\/     M anipulation  |                                                 |
\*---------------------------------------------------------------------------*/
FoamFile
{
    version     2.0;
    format      ascii;
    arch        "LSB;label=32;scalar=64";
    class       volScalarField;
    location    "3.5e-06";
    object      E_dof0;
}
// * * * * * * * * * * * * * * * * * * * * * * * * * * * * * * * * * * * * * //

dimensions      [0 0 0 0 0 0 0];

internalField   nonuniform List<scalar> 
84
(
99.4335
50.7239
57.1107
99.4451
50.7405
57.1255
99.4421
50.7385
57.1233
99.4421
50.7385
57.1233
99.4421
50.7385
57.1233
99.4421
50.7385
57.1233
99.4421
50.7385
57.1233
99.4421
50.7385
57.1233
99.4421
50.7385
57.1233
99.4421
50.7385
57.1233
99.4421
50.7385
57.1233
99.4423
50.7346
57.1205
80.552
79.1063
79.4314
83.2152
81.6383
81.9763
82.9396
81.3762
81.7113
82.6649
81.1149
81.2057
79.0001
82.3907
80.8542
80.9405
81.2168
82.1183
80.5951
80.677
80.9527
81.852
80.3417
80.4193
80.6943
81.5902
80.0924
80.1658
80.4393
81.3528
79.8652
79.9348
79.9456
79.067
81.0095
79.542
79.6059
79.6119
79.8864
80.756
79.3004
79.3602
79.3632
79.6802
80.4948
79.0516
79.1073
79.3787
)
;

boundaryField
{
    inlet
    {
        type            calculated;
        value           uniform 99.4306;
    }
    outlet2
    {
        type            calculated;
        value           uniform 99.4306;
    }
    outlet1
    {
        type            calculated;
        value           nonuniform List<scalar> 0();
    }
    wall
    {
        type            calculated;
        value           uniform 99.4306;
    }
    symmetryBottom
    {
        type            symmetry;
    }
    symmetryZ0
    {
        type            symmetry;
    }
    symmetryZ05
    {
        type            symmetry;
    }
    procBoundary1to0
    {
        type            processor;
        value           uniform 99.4306;
    }
}


// ************************************************************************* //
