/*--------------------------------*- C++ -*----------------------------------*\
| =========                 |                                                 |
| \\      /  F ield         | OpenFOAM: The Open Source CFD Toolbox           |
|  \\    /   O peration     | Version:  2412                                  |
|   \\  /    A nd           | Website:  www.openfoam.com                      |
|    \\/     M anipulation  |                                                 |
\*---------------------------------------------------------------------------*/
FoamFile
{
    version     2.0;
    format      ascii;
    arch        "LSB;label=32;scalar=64";
    class       volScalarField;
    location    "3.5e-06";
    object      T;
}
// * * * * * * * * * * * * * * * * * * * * * * * * * * * * * * * * * * * * * //

dimensions      [0 0 0 0 0 0 0];

internalField   nonuniform List<scalar> 
84
(
200.004
199.835
200.036
199.989
199.803
200.009
199.986
199.799
200.005
199.986
199.799
200.005
199.986
199.799
200.005
199.986
199.799
200.005
199.986
199.799
200.005
199.986
199.799
200.005
199.986
199.799
200.005
199.986
199.799
200.005
199.986
199.799
200.005
199.986
199.789
199.999
202.158
202.08
202.084
200.011
199.997
199.999
200.011
199.997
199.999
200.011
199.997
199.999
200.009
200.013
199.999
200.001
200.001
200.386
200.359
200.366
200.365
201.933
201.86
201.891
201.889
203.389
203.272
203.326
203.323
209.232
208.915
209.068
209.206
199.509
196.388
196.475
196.419
196.366
196.287
199.147
199.16
199.147
199.135
199.172
199.649
199.647
199.642
199.643
)
;

boundaryField
{
    inlet
    {
        type            calculated;
        value           uniform 0;
    }
    outlet2
    {
        type            calculated;
        value           uniform 0;
    }
    outlet1
    {
        type            calculated;
        value           nonuniform List<scalar> 0();
    }
    wall
    {
        type            calculated;
        value           uniform 0;
    }
    symmetryBottom
    {
        type            symmetry;
    }
    symmetryZ0
    {
        type            symmetry;
    }
    symmetryZ05
    {
        type            symmetry;
    }
    procBoundary1to0
    {
        type            processor;
        value           uniform 0;
    }
}


// ************************************************************************* //
