/*--------------------------------*- C++ -*----------------------------------*\
| =========                 |                                                 |
| \\      /  F ield         | OpenFOAM: The Open Source CFD Toolbox           |
|  \\    /   O peration     | Version:  2412                                  |
|   \\  /    A nd           | Website:  www.openfoam.com                      |
|    \\/     M anipulation  |                                                 |
\*---------------------------------------------------------------------------*/
FoamFile
{
    version     2.0;
    format      ascii;
    arch        "LSB;label=32;scalar=64";
    class       volScalarField;
    location    "1.3e-06";
    object      E_dof0;
}
// * * * * * * * * * * * * * * * * * * * * * * * * * * * * * * * * * * * * * //

dimensions      [0 0 0 0 0 0 0];

internalField   nonuniform List<scalar> 
84
(
99.4056
91.1824
91.3473
91.3457
91.3461
91.3465
91.3469
91.4724
100.613
92.3133
92.4968
92.5125
92.5308
92.5496
92.5691
92.6957
100.466
92.2165
92.3791
92.3934
92.4099
92.4269
92.4444
92.5709
100.363
92.0966
92.2766
92.2892
92.3042
92.3198
92.4462
100.259
91.9795
92.1578
92.1685
92.1817
92.1953
92.3216
100.136
91.8636
92.0399
92.0488
92.0602
92.0718
92.198
100.015
91.7501
91.9246
91.9317
91.9412
91.951
92.0771
99.8824
91.6481
91.8101
91.8158
91.8234
91.8313
91.9573
99.7836
91.5429
91.7139
91.7179
91.7241
91.85
99.6324
91.3901
91.5587
91.5603
91.5641
91.6898
99.5103
91.2809
91.4475
91.4473
91.4493
91.5749
99.2662
91.1721
91.3299
91.3281
91.3282
91.3282
91.4537
)
;

boundaryField
{
    inlet
    {
        type            calculated;
        value           nonuniform List<scalar> 0();
    }
    outlet2
    {
        type            calculated;
        value           uniform 99.4306;
    }
    outlet1
    {
        type            calculated;
        value           uniform 99.4306;
    }
    wall
    {
        type            calculated;
        value           uniform 99.4306;
    }
    symmetryBottom
    {
        type            symmetry;
    }
    symmetryZ0
    {
        type            symmetry;
    }
    symmetryZ05
    {
        type            symmetry;
    }
    procBoundary0to1
    {
        type            processor;
        value           uniform 99.4306;
    }
}


// ************************************************************************* //
