/*--------------------------------*- C++ -*----------------------------------*\
| =========                 |                                                 |
| \\      /  F ield         | OpenFOAM: The Open Source CFD Toolbox           |
|  \\    /   O peration     | Version:  2412                                  |
|   \\  /    A nd           | Website:  www.openfoam.com                      |
|    \\/     M anipulation  |                                                 |
\*---------------------------------------------------------------------------*/
FoamFile
{
    version     2.0;
    format      ascii;
    arch        "LSB;label=32;scalar=64";
    class       volVectorField;
    location    "4.9e-06";
    object      rhoU_dof0;
}
// * * * * * * * * * * * * * * * * * * * * * * * * * * * * * * * * * * * * * //

dimensions      [0 0 0 0 0 0 0];

internalField   nonuniform List<vector> 
84
(
(0.0741089 -3.93711e-07 0)
(0.0261485 -5.71788e-07 0)
(0.0348025 -4.72186e-07 -1.17104e-19)
(0.0741249 -0.000113243 0)
(0.0261652 -5.25223e-05 0)
(0.0348176 -6.48405e-05 -1.13197e-19)
(0.0741208 -0.000112853 0)
(0.0261631 -5.23254e-05 0)
(0.0348151 -6.46034e-05 1.53786e-19)
(0.0741208 -0.000112853 0)
(0.0261631 -5.23254e-05 0)
(0.0348151 -6.46034e-05 -1.9915e-19)
(0.0741208 -0.000112853 0)
(0.0261631 -5.23254e-05 0)
(0.0348151 -6.46034e-05 -3.09948e-19)
(0.0741208 -0.000112853 0)
(0.0261631 -5.23254e-05 0)
(0.0348151 -6.46034e-05 1.94381e-19)
(0.0741208 -0.000112853 0)
(0.0261631 -5.23254e-05 0)
(0.0348151 -6.46034e-05 -2.25692e-19)
(0.0741208 -0.000112853 0)
(0.0261631 -5.23254e-05 0)
(0.0348151 -6.46034e-05 -2.5999e-19)
(0.0741208 -0.000112853 0)
(0.0261631 -5.23254e-05 0)
(0.0348151 -6.46034e-05 1.13959e-19)
(0.0741208 -0.000112853 0)
(0.0261631 -5.23254e-05 0)
(0.0348151 -6.46034e-05 -2.24178e-19)
(0.0741208 -0.000112853 0)
(0.0261631 -5.23227e-05 0)
(0.0348151 -6.46017e-05 -5.9262e-19)
(0.074121 -0.000112868 0)
(0.0261594 -5.19615e-05 0)
(0.0348128 -6.43808e-05 0)
(0.0557653 0.000109434 1.03805e-20)
(0.0538773 0.000100854 1.16737e-19)
(0.0542436 0.00010178 1.20689e-20)
(0.058364 -0.000110722 9.99811e-21)
(0.0562725 -0.000108456 1.27258e-19)
(0.0566608 -0.000109036 -2.84071e-21)
(0.0580921 -0.000110245 -1.4244e-20)
(0.0560216 -0.000107994 -5.91585e-20)
(0.0564055 -0.000108476 -2.23936e-19)
(0.0578212 -0.000109756 1.82625e-20)
(0.0557719 -0.000107535 -2.94602e-21)
(0.0559161 -0.000109322 1.78661e-22)
(0.0537661 6.44972e-06 1.90769e-19)
(0.0575511 -0.000109296 -3.27489e-20)
(0.0555229 -0.000107102 7.41767e-22)
(0.055662 -0.000108874 -1.93702e-21)
(0.0559292 -0.000109251 1.99113e-19)
(0.0572807 -0.000104237 -1.79648e-20)
(0.0552736 -0.00010246 -1.23001e-19)
(0.0554076 -0.000104154 6.33556e-21)
(0.055674 -0.000104516 1.33681e-19)
(0.0570092 -8.23721e-05 2.16445e-20)
(0.0550233 -8.22493e-05 -1.86019e-21)
(0.0551523 -8.35288e-05 -2.27235e-22)
(0.0554177 -8.38229e-05 -1.04775e-21)
(0.056743 -6.87692e-05 2.67775e-20)
(0.0547778 -6.96602e-05 -1.25375e-19)
(0.0549018 -7.0694e-05 1.34281e-19)
(0.0551651 -7.08744e-05 1.71582e-21)
(0.0564661 -6.05637e-05 -1.00535e-20)
(0.0545216 -6.20541e-05 -1.87087e-19)
(0.0546405 -6.29141e-05 -1.72792e-19)
(0.0546472 -6.38379e-05 2.08735e-19)
(0.0538643 6.81668e-06 1.11229e-18)
(0.0562243 -5.92904e-05 2.28784e-20)
(0.0543008 -6.08652e-05 -1.81339e-19)
(0.0544152 -6.16726e-05 1.31431e-19)
(0.0544186 -6.25526e-05 2.58971e-19)
(0.0546849 -6.31247e-05 1.6488e-19)
(0.0559542 -6.77129e-05 5.60961e-20)
(0.0540513 -6.86086e-05 -2.95839e-21)
(0.0541606 -6.95786e-05 3.42762e-22)
(0.0541611 -7.06451e-05 -2.83824e-22)
(0.0544865 -7.53107e-05 -1.93755e-19)
(0.0556962 -8.21379e-05 1.34422e-22)
(0.053813 -8.18576e-05 1.77621e-19)
(0.0539177 -8.30852e-05 -1.41839e-20)
(0.0541784 -8.33467e-05 -2.60232e-19)
)
;

boundaryField
{
    inlet
    {
        type            calculated;
        value           uniform (0.0741049 0 0);
    }
    outlet2
    {
        type            calculated;
        value           uniform (0.0741049 0 0);
    }
    outlet1
    {
        type            calculated;
        value           nonuniform List<vector> 0();
    }
    wall
    {
        type            calculated;
        value           uniform (0.0741049 0 0);
    }
    symmetryBottom
    {
        type            symmetry;
    }
    symmetryZ0
    {
        type            symmetry;
    }
    symmetryZ05
    {
        type            symmetry;
    }
    procBoundary1to0
    {
        type            processor;
        value           uniform (0.0741049 0 0);
    }
}


// ************************************************************************* //
