/*--------------------------------*- C++ -*----------------------------------*\
| =========                 |                                                 |
| \\      /  F ield         | OpenFOAM: The Open Source CFD Toolbox           |
|  \\    /   O peration     | Version:  2412                                  |
|   \\  /    A nd           | Website:  www.openfoam.com                      |
|    \\/     M anipulation  |                                                 |
\*---------------------------------------------------------------------------*/
FoamFile
{
    version     2.0;
    format      ascii;
    arch        "LSB;label=32;scalar=64";
    class       volScalarField;
    location    "2.5e-06";
    object      E;
}
// * * * * * * * * * * * * * * * * * * * * * * * * * * * * * * * * * * * * * //

dimensions      [0 0 0 0 0 0 0];

internalField   nonuniform List<scalar> 
84
(
99.4321
63.2656
66.6612
99.4383
63.2772
66.6716
99.4367
63.276
66.6704
99.4367
63.276
66.6704
99.4367
63.276
66.6704
99.4367
63.276
66.6704
99.4367
63.276
66.6704
99.4367
63.276
66.6704
99.4367
63.276
66.6704
99.4367
63.276
66.6704
99.4367
63.276
66.6704
99.4368
63.273
66.668
85.2451
84.4571
84.68
87.2336
86.3872
86.6158
87.0292
86.1888
86.416
86.8253
85.9907
86.0361
84.3867
86.6216
85.7931
85.8354
86.0423
86.4194
85.5967
85.6359
85.8426
86.2218
85.4047
85.4409
85.6472
86.0267
85.2152
85.2485
85.454
85.851
85.0438
85.0745
85.0834
84.4217
85.5923
84.7944
84.8211
84.8264
85.0328
85.4044
84.6116
84.6355
84.6383
84.8665
85.2085
84.4212
84.4422
84.6465
)
;

boundaryField
{
    inlet
    {
        type            calculated;
        value           uniform 0;
    }
    outlet2
    {
        type            calculated;
        value           uniform 0;
    }
    outlet1
    {
        type            calculated;
        value           nonuniform List<scalar> 0();
    }
    wall
    {
        type            calculated;
        value           uniform 0;
    }
    symmetryBottom
    {
        type            symmetry;
    }
    symmetryZ0
    {
        type            symmetry;
    }
    symmetryZ05
    {
        type            symmetry;
    }
    procBoundary1to0
    {
        type            processor;
        value           uniform 0;
    }
}


// ************************************************************************* //
