/*--------------------------------*- C++ -*----------------------------------*\
| =========                 |                                                 |
| \\      /  F ield         | OpenFOAM: The Open Source CFD Toolbox           |
|  \\    /   O peration     | Version:  2412                                  |
|   \\  /    A nd           | Website:  www.openfoam.com                      |
|    \\/     M anipulation  |                                                 |
\*---------------------------------------------------------------------------*/
FoamFile
{
    version     2.0;
    format      ascii;
    arch        "LSB;label=32;scalar=64";
    class       volVectorField;
    location    "2.5e-06";
    object      rhoU_dof0;
}
// * * * * * * * * * * * * * * * * * * * * * * * * * * * * * * * * * * * * * //

dimensions      [0 0 0 0 0 0 0];

internalField   nonuniform List<vector> 
84
(
(0.074106 -1.09167e-07 0)
(0.0472912 -3.0467e-07 0)
(0.049795 -2.66464e-07 -7.65034e-20)
(0.0741106 -6.35758e-05 0)
(0.0472999 -4.59537e-05 0)
(0.0498028 -4.77336e-05 -7.33801e-20)
(0.0741094 -6.34598e-05 0)
(0.047299 -4.58674e-05 0)
(0.0498019 -4.76442e-05 1.07728e-19)
(0.0741094 -6.34598e-05 0)
(0.047299 -4.58674e-05 0)
(0.0498019 -4.76441e-05 -1.38972e-19)
(0.0741094 -6.34598e-05 0)
(0.047299 -4.58674e-05 0)
(0.0498019 -4.76441e-05 -2.34199e-19)
(0.0741094 -6.34598e-05 0)
(0.047299 -4.58674e-05 0)
(0.0498019 -4.76441e-05 1.3427e-19)
(0.0741094 -6.34598e-05 0)
(0.047299 -4.58674e-05 0)
(0.0498019 -4.76441e-05 -1.68636e-19)
(0.0741094 -6.34598e-05 0)
(0.047299 -4.58674e-05 0)
(0.0498019 -4.76441e-05 -2.01413e-19)
(0.0741094 -6.34598e-05 0)
(0.047299 -4.58674e-05 0)
(0.0498019 -4.76441e-05 7.64994e-20)
(0.0741094 -6.34598e-05 0)
(0.047299 -4.58673e-05 0)
(0.0498019 -4.76441e-05 -1.68645e-19)
(0.0741094 -6.34598e-05 0)
(0.0472989 -4.58666e-05 0)
(0.0498019 -4.76435e-05 -4.13762e-19)
(0.0741095 -6.34687e-05 0)
(0.0472968 -4.56513e-05 0)
(0.0498001 -4.74693e-05 0)
(0.0635883 6.30519e-05 3.06306e-21)
(0.0630071 6.12125e-05 6.66122e-20)
(0.0631722 6.13915e-05 6.66078e-21)
(0.0650599 -6.29708e-05 2.94719e-21)
(0.0644358 -6.32997e-05 7.1896e-20)
(0.0646051 -6.34177e-05 -7.42977e-22)
(0.0649084 -6.28392e-05 -4.68973e-21)
(0.0642886 -6.31672e-05 -3.28114e-20)
(0.0644569 -6.32596e-05 -1.4597e-19)
(0.0647572 -6.27055e-05 6.02855e-21)
(0.0641418 -6.30351e-05 -1.24393e-21)
(0.0641753 -6.39606e-05 4.16091e-23)
(0.0629522 1.78715e-06 1.02033e-19)
(0.0646062 -6.25781e-05 -2.6913e-20)
(0.0639952 -6.2909e-05 1.64329e-23)
(0.0640263 -6.38308e-05 -1.08921e-21)
(0.0641798 -6.39374e-05 1.05486e-19)
(0.064455 -5.94421e-05 -5.88773e-21)
(0.0638484 -5.98679e-05 -7.179e-20)
(0.0638772 -6.07469e-05 7.69342e-22)
(0.0640305 -6.08491e-05 6.92387e-20)
(0.0643034 -4.74032e-05 6.80856e-21)
(0.0637011 -4.81633e-05 -3.46088e-22)
(0.0637277 -4.88575e-05 -3.83714e-22)
(0.0638806 -4.89405e-05 -5.70583e-22)
(0.0641535 -3.96782e-05 9.01504e-21)
(0.0635555 -4.06521e-05 -6.79919e-20)
(0.0635798 -4.12306e-05 7.59907e-20)
(0.0637321 -4.12825e-05 6.48739e-22)
(0.064001 -3.55587e-05 -3.04111e-21)
(0.0634071 -3.66401e-05 -1.04012e-19)
(0.0634291 -3.71505e-05 -1.01668e-19)
(0.0634353 -3.7691e-05 1.13435e-19)
(0.0629798 1.90787e-06 6.84195e-19)
(0.0638582 -3.53929e-05 7.56891e-21)
(0.0632691 -3.64724e-05 -1.04555e-19)
(0.0632889 -3.69718e-05 7.19699e-20)
(0.0632931 -3.7502e-05 1.7052e-19)
(0.0634464 -3.76572e-05 1.03973e-19)
(0.0637076 -4.00208e-05 1.84588e-20)
(0.0631227 -4.0964e-05 -4.40251e-22)
(0.0631403 -4.15346e-05 1.42216e-22)
(0.0631425 -4.21504e-05 -5.17899e-23)
(0.0633116 -4.34323e-05 -1.04951e-19)
(0.06356 -4.83762e-05 7.74013e-23)
(0.0629792 -4.90632e-05 1.00584e-19)
(0.0629947 -4.97564e-05 -3.97644e-21)
(0.0631462 -4.98328e-05 -1.79091e-19)
)
;

boundaryField
{
    inlet
    {
        type            calculated;
        value           uniform (0.0741049 0 0);
    }
    outlet2
    {
        type            calculated;
        value           uniform (0.0741049 0 0);
    }
    outlet1
    {
        type            calculated;
        value           nonuniform List<vector> 0();
    }
    wall
    {
        type            calculated;
        value           uniform (0.0741049 0 0);
    }
    symmetryBottom
    {
        type            symmetry;
    }
    symmetryZ0
    {
        type            symmetry;
    }
    symmetryZ05
    {
        type            symmetry;
    }
    procBoundary1to0
    {
        type            processor;
        value           uniform (0.0741049 0 0);
    }
}


// ************************************************************************* //
