/*--------------------------------*- C++ -*----------------------------------*\
| =========                 |                                                 |
| \\      /  F ield         | OpenFOAM: The Open Source CFD Toolbox           |
|  \\    /   O peration     | Version:  2412                                  |
|   \\  /    A nd           | Website:  www.openfoam.com                      |
|    \\/     M anipulation  |                                                 |
\*---------------------------------------------------------------------------*/
FoamFile
{
    version     2.0;
    format      ascii;
    arch        "LSB;label=32;scalar=64";
    class       volScalarField;
    location    "4.9e-06";
    object      E;
}
// * * * * * * * * * * * * * * * * * * * * * * * * * * * * * * * * * * * * * //

dimensions      [0 0 0 0 0 0 0];

internalField   nonuniform List<scalar> 
84
(
97.8335
70.1951
72.408
72.2947
72.302
72.3049
72.3081
72.7056
102.33
73.4987
75.8587
75.7931
75.8548
75.9136
75.9744
76.3869
101.541
73.4527
75.4674
75.4283
75.4824
75.5352
75.5897
76.0007
101.19
72.8608
75.1816
75.1072
75.1587
75.2069
75.6163
100.987
72.4981
74.8181
74.7378
74.7834
74.8254
75.2334
100.517
72.1517
74.4559
74.3704
74.41
74.4459
74.8523
100.056
71.8142
74.1018
74.0114
74.0451
74.075
74.48
99.4364
71.6495
73.7391
73.6612
73.6884
73.7127
74.1161
99.0646
71.2015
73.4535
73.3542
73.3777
73.7797
98.632
70.767
73.0082
72.9026
72.9191
73.3191
98.1068
70.4466
72.6638
72.5537
72.5644
72.963
97.2277
70.2001
72.3089
72.2018
72.2066
72.2072
72.6045
)
;

boundaryField
{
    inlet
    {
        type            calculated;
        value           nonuniform List<scalar> 0();
    }
    outlet2
    {
        type            calculated;
        value           uniform 0;
    }
    outlet1
    {
        type            calculated;
        value           uniform 0;
    }
    wall
    {
        type            calculated;
        value           uniform 0;
    }
    symmetryBottom
    {
        type            symmetry;
    }
    symmetryZ0
    {
        type            symmetry;
    }
    symmetryZ05
    {
        type            symmetry;
    }
    procBoundary0to1
    {
        type            processor;
        value           uniform 0;
    }
}


// ************************************************************************* //
