/*--------------------------------*- C++ -*----------------------------------*\
| =========                 |                                                 |
| \\      /  F ield         | OpenFOAM: The Open Source CFD Toolbox           |
|  \\    /   O peration     | Version:  2412                                  |
|   \\  /    A nd           | Website:  www.openfoam.com                      |
|    \\/     M anipulation  |                                                 |
\*---------------------------------------------------------------------------*/
FoamFile
{
    version     2.0;
    format      ascii;
    arch        "LSB;label=32;scalar=64";
    class       volVectorField;
    location    "4.9e-06";
    object      U;
}
// * * * * * * * * * * * * * * * * * * * * * * * * * * * * * * * * * * * * * //

dimensions      [0 0 0 0 0 0 0];

internalField   nonuniform List<vector> 
84
(
(2634.9 5.05989 5.01354e-15)
(2629.42 5.15439 -7.0641e-15)
(2630.46 5.22489 -1.29837e-14)
(2630.37 5.30143 7.4816e-15)
(2630.36 5.37995 -7.80943e-16)
(2630.34 5.46085 9.06327e-16)
(2630.33 5.54421 1.22994e-14)
(2630.42 5.53717 1.88738e-15)
(2636.54 -5.15351 4.98896e-15)
(2631.15 -5.31288 -6.60613e-15)
(2632.2 -5.37111 -1.54292e-14)
(2632.13 -5.45358 1.54281e-15)
(2632.15 -5.53681 -2.92577e-14)
(2632.16 -5.6227 5.95427e-15)
(2632.17 -5.7113 2.32203e-14)
(2632.26 -5.70297 4.65039e-15)
(2636.38 -4.75177 -2.06833e-14)
(2631.21 -5.80017 5.16636e-15)
(2632.1 -5.32574 8.96076e-15)
(2632.06 -5.45722 -8.28913e-16)
(2632.07 -5.5378 -3.46238e-16)
(2632.08 -5.62383 1.15911e-14)
(2632.09 -5.71246 -1.01997e-14)
(2632.18 -5.70412 -1.11569e-14)
(2636.33 -4.91951 -2.01025e-14)
(2631.01 -5.40985 1.30853e-14)
(2632.05 -5.45389 -1.15369e-15)
(2631.99 -5.53907 -2.62137e-14)
(2632 -5.62497 2.5553e-14)
(2632.01 -5.71364 4.6471e-15)
(2632.1 -5.70529 -1.02113e-14)
(2636.33 -5.2383 -1.24913e-14)
(2630.93 -5.38935 -4.76721e-15)
(2631.98 -5.45718 4.17294e-16)
(2631.91 -5.54157 1.27988e-16)
(2631.92 -5.62756 -9.68861e-15)
(2631.93 -5.71632 7.32802e-15)
(2632.02 -5.70796 1.63554e-14)
(2636.24 -5.04354 -7.58043e-15)
(2630.82 -5.18162 1.44973e-14)
(2631.87 -5.24956 -1.22189e-15)
(2631.8 -5.33204 1.69218e-14)
(2631.82 -5.41625 -1.52747e-14)
(2631.82 -5.5032 1.30607e-14)
(2631.91 -5.4952 -2.83258e-14)
(2636.09 -4.06245 -2.39722e-18)
(2630.64 -4.17741 1.38766e-14)
(2631.69 -4.22874 -1.19639e-15)
(2631.62 -4.29544 1.37052e-17)
(2631.62 -4.36318 1.40906e-14)
(2631.63 -4.43314 1.9088e-15)
(2631.72 -4.42674 1.39052e-14)
(2635.95 -3.10127 1.52721e-16)
(2630.56 -3.95413 1.51119e-16)
(2631.55 -3.55902 -6.4903e-17)
(2631.48 -3.65689 -1.57845e-16)
(2631.49 -3.71292 -3.32344e-17)
(2631.49 -3.77321 6.85552e-17)
(2631.58 -3.76774 -1.19024e-14)
(2635.82 -2.94892 2.69759e-14)
(2630.32 -3.23207 -2.94593e-15)
(2631.38 -3.26242 -2.97195e-14)
(2631.3 -3.31431 -1.00925e-14)
(2631.31 -3.36692 1.60808e-14)
(2631.4 -3.36219 -1.35605e-15)
(2635.89 -3.08929 -9.68937e-15)
(2630.53 -3.16289 1.05968e-15)
(2631.57 -3.20504 -1.37005e-14)
(2631.49 -3.25395 1.50203e-14)
(2631.5 -3.30399 2.53094e-14)
(2631.59 -3.29952 -2.33633e-15)
(2635.85 -3.30485 -1.3711e-14)
(2630.44 -3.61596 1.44728e-15)
(2631.48 -3.63495 -4.38792e-17)
(2631.41 -3.6929 2.65319e-14)
(2631.41 -3.75052 2.75534e-14)
(2631.5 -3.74536 1.19352e-15)
(2635.76 -0.409258 -8.56465e-16)
(2630.4 -4.78364 6.38454e-17)
(2631.43 -4.26142 -2.37796e-18)
(2631.36 -4.36329 1.62443e-14)
(2631.36 -4.42858 -1.44471e-15)
(2631.36 -4.49772 7.83816e-17)
(2631.45 -4.49167 -1.38954e-14)
)
;

boundaryField
{
    inlet
    {
        type            calculated;
        value           nonuniform List<vector> 0();
    }
    outlet2
    {
        type            calculated;
        value           uniform (0 0 0);
    }
    outlet1
    {
        type            calculated;
        value           uniform (0 0 0);
    }
    wall
    {
        type            calculated;
        value           uniform (0 0 0);
    }
    symmetryBottom
    {
        type            symmetry;
    }
    symmetryZ0
    {
        type            symmetry;
    }
    symmetryZ05
    {
        type            symmetry;
    }
    procBoundary0to1
    {
        type            processor;
        value           uniform (0 0 0);
    }
}


// ************************************************************************* //
