/*--------------------------------*- C++ -*----------------------------------*\
| =========                 |                                                 |
| \\      /  F ield         | OpenFOAM: The Open Source CFD Toolbox           |
|  \\    /   O peration     | Version:  2412                                  |
|   \\  /    A nd           | Website:  www.openfoam.com                      |
|    \\/     M anipulation  |                                                 |
\*---------------------------------------------------------------------------*/
FoamFile
{
    version     2.0;
    format      ascii;
    arch        "LSB;label=32;scalar=64";
    class       volScalarField;
    location    "9.1e-06";
    object      E;
}
// * * * * * * * * * * * * * * * * * * * * * * * * * * * * * * * * * * * * * //

dimensions      [0 0 0 0 0 0 0];

internalField   nonuniform List<scalar> 
84
(
102.045
52.4234
56.0517
55.8919
55.9159
55.9362
55.9052
56.5811
109.137
56.1574
60.0912
59.9826
60.0721
60.1594
60.2005
60.9137
107.698
56.2421
59.5861
59.5228
59.6029
59.6836
59.7175
60.4263
106.522
55.3763
59.1708
59.0553
59.1338
59.1577
59.8617
106.601
54.8144
58.6445
58.5182
58.5879
58.6022
59.3015
105.693
54.3288
58.1194
57.9862
58.047
58.0518
58.7464
104.779
53.8504
57.5988
57.4589
57.511
57.5065
58.1965
103.592
53.6022
57.0615
56.9375
56.9799
56.9664
57.6517
102.578
52.9547
56.5957
56.4472
56.4314
57.1119
102.127
52.4469
56.0826
55.9258
55.9012
56.5771
101.175
51.9814
55.5722
55.4093
55.3759
56.0472
99.3869
51.6388
55.0558
54.8936
54.9041
54.8557
55.5227
)
;

boundaryField
{
    inlet
    {
        type            calculated;
        value           nonuniform List<scalar> 0();
    }
    outlet2
    {
        type            calculated;
        value           uniform 0;
    }
    outlet1
    {
        type            calculated;
        value           uniform 0;
    }
    wall
    {
        type            calculated;
        value           uniform 0;
    }
    symmetryBottom
    {
        type            symmetry;
    }
    symmetryZ0
    {
        type            symmetry;
    }
    symmetryZ05
    {
        type            symmetry;
    }
    procBoundary0to1
    {
        type            processor;
        value           uniform 0;
    }
}


// ************************************************************************* //
