/*--------------------------------*- C++ -*----------------------------------*\
| =========                 |                                                 |
| \\      /  F ield         | OpenFOAM: The Open Source CFD Toolbox           |
|  \\    /   O peration     | Version:  2412                                  |
|   \\  /    A nd           | Website:  www.openfoam.com                      |
|    \\/     M anipulation  |                                                 |
\*---------------------------------------------------------------------------*/
FoamFile
{
    version     2.0;
    format      ascii;
    arch        "LSB;label=32;scalar=64";
    class       volVectorField;
    location    "9.1e-06";
    object      U;
}
// * * * * * * * * * * * * * * * * * * * * * * * * * * * * * * * * * * * * * //

dimensions      [0 0 0 0 0 0 0];

internalField   nonuniform List<vector> 
84
(
(2636.39 -0.16993 1.11806e-14)
(2624.5 -0.20028 -1.16697e-14)
(2627.01 -0.200509 -3.07229e-14)
(2626.84 -0.206798 1.54482e-14)
(2626.85 -0.212989 -1.54405e-15)
(2626.85 -0.219455 -1.03678e-15)
(2626.81 -0.226966 2.75488e-14)
(2627.05 -0.225092 2.71642e-15)
(2637.8 -9.41191 1.0194e-14)
(2626.07 -9.70095 -1.06193e-14)
(2628.56 -9.79813 -3.5735e-14)
(2628.42 -9.94629 7.91107e-15)
(2628.45 -10.0955 -6.26331e-14)
(2628.47 -10.2486 7.90987e-15)
(2628.47 -10.4226 5.00192e-14)
(2628.69 -10.3879 8.94054e-15)
(2637.54 -8.84661 -4.64828e-14)
(2626.31 -10.9273 1.00052e-14)
(2628.41 -9.88761 1.75171e-14)
(2628.31 -10.137 -1.31221e-15)
(2628.34 -10.2867 -3.44541e-15)
(2628.36 -10.4457 2.72872e-14)
(2628.35 -10.6263 -1.85843e-14)
(2628.58 -10.5903 -2.2565e-14)
(2637.32 -8.61203 -4.64753e-14)
(2625.9 -10.1653 3.14642e-14)
(2628.32 -10.1273 2.00552e-15)
(2628.19 -10.2912 -5.95284e-14)
(2628.21 -10.4499 5.38651e-14)
(2628.2 -10.6306 9.46337e-15)
(2628.43 -10.5947 -1.77033e-14)
(2637.44 -9.71426 -2.46823e-14)
(2625.69 -10.0174 -9.33825e-15)
(2628.19 -10.1355 6.99046e-16)
(2628.04 -10.2925 1.12577e-15)
(2628.07 -10.4515 -1.91059e-14)
(2628.05 -10.6323 1.17603e-14)
(2628.28 -10.5963 3.43244e-14)
(2637.31 -9.73573 -1.62921e-14)
(2625.55 -10.0161 3.41518e-14)
(2628.04 -10.1371 -5.30629e-15)
(2627.9 -10.294 4.00707e-14)
(2627.92 -10.453 -3.67177e-14)
(2627.9 -10.6339 3.24672e-14)
(2628.14 -10.5979 -5.54997e-14)
(2637.18 -9.73259 -1.48518e-15)
(2625.41 -10.0247 3.21919e-14)
(2627.9 -10.1379 -2.25343e-15)
(2627.75 -10.2956 -2.05639e-15)
(2627.77 -10.4546 3.16097e-14)
(2627.76 -10.6356 1.90459e-15)
(2627.99 -10.5995 2.9221e-14)
(2636.97 -9.04693 2.2931e-16)
(2625.43 -11.1314 5.04118e-16)
(2627.74 -10.0433 -1.07517e-16)
(2627.61 -10.3023 -3.98529e-16)
(2627.63 -10.456 1.17572e-16)
(2627.61 -10.6372 1.88907e-15)
(2627.84 -10.6011 -2.38003e-14)
(2636.79 -8.7141 5.77304e-14)
(2625.16 -10.3315 -2.45017e-15)
(2627.62 -10.2895 -6.07775e-14)
(2627.47 -10.4581 -2.25166e-14)
(2627.46 -10.6388 3.45201e-14)
(2627.69 -10.6028 -1.98855e-15)
(2636.78 -9.87537 -1.9988e-14)
(2624.99 -10.1745 5.25353e-15)
(2627.48 -10.2981 -3.42768e-14)
(2627.33 -10.4594 3.04107e-14)
(2627.31 -10.6405 5.62311e-14)
(2627.54 -10.6044 -5.13676e-15)
(2636.63 -9.30002 -2.70256e-14)
(2624.85 -10.2798 3.67107e-15)
(2627.34 -10.2945 -4.3028e-15)
(2627.18 -10.4612 5.31686e-14)
(2627.16 -10.6421 6.06339e-14)
(2627.39 -10.606 1.158e-15)
(2636.38 -0.560618 -1.39877e-15)
(2624.79 -12.3261 2.12209e-16)
(2627.18 -9.98727 -2.82721e-15)
(2627.03 -10.3055 3.8117e-14)
(2627.04 -10.4572 -2.99586e-15)
(2627.01 -10.6388 2.59607e-15)
(2627.25 -10.603 -3.08185e-14)
)
;

boundaryField
{
    inlet
    {
        type            calculated;
        value           nonuniform List<vector> 0();
    }
    outlet2
    {
        type            calculated;
        value           uniform (0 0 0);
    }
    outlet1
    {
        type            calculated;
        value           uniform (0 0 0);
    }
    wall
    {
        type            calculated;
        value           uniform (0 0 0);
    }
    symmetryBottom
    {
        type            symmetry;
    }
    symmetryZ0
    {
        type            symmetry;
    }
    symmetryZ05
    {
        type            symmetry;
    }
    procBoundary0to1
    {
        type            processor;
        value           uniform (0 0 0);
    }
}


// ************************************************************************* //
