/*--------------------------------*- C++ -*----------------------------------*\
| =========                 |                                                 |
| \\      /  F ield         | OpenFOAM: The Open Source CFD Toolbox           |
|  \\    /   O peration     | Version:  2412                                  |
|   \\  /    A nd           | Website:  www.openfoam.com                      |
|    \\/     M anipulation  |                                                 |
\*---------------------------------------------------------------------------*/
FoamFile
{
    version     2.0;
    format      ascii;
    arch        "LSB;label=32;scalar=64";
    class       volScalarField;
    location    "3e-06";
    object      rho;
}
// * * * * * * * * * * * * * * * * * * * * * * * * * * * * * * * * * * * * * //

dimensions      [0 0 0 0 0 0 0];

internalField   nonuniform List<scalar> 
84
(
2.81091e-05
1.6201e-05
1.75275e-05
2.81116e-05
1.6205e-05
1.75311e-05
2.81109e-05
1.62045e-05
1.75306e-05
2.81109e-05
1.62045e-05
1.75306e-05
2.81109e-05
1.62045e-05
1.75306e-05
2.81109e-05
1.62045e-05
1.75306e-05
2.81109e-05
1.62045e-05
1.75306e-05
2.81109e-05
1.62045e-05
1.75306e-05
2.81109e-05
1.62045e-05
1.75306e-05
2.81109e-05
1.62045e-05
1.75306e-05
2.81109e-05
1.62045e-05
1.75306e-05
2.8111e-05
1.62036e-05
1.75299e-05
2.34713e-05
2.31669e-05
2.32429e-05
2.41178e-05
2.37883e-05
2.38668e-05
2.40505e-05
2.37236e-05
2.38014e-05
2.39834e-05
2.3659e-05
2.36771e-05
2.31358e-05
2.39163e-05
2.35945e-05
2.36115e-05
2.36794e-05
2.38493e-05
2.35301e-05
2.35461e-05
2.36138e-05
2.37825e-05
2.34658e-05
2.34808e-05
2.35484e-05
2.37162e-05
2.34021e-05
2.3416e-05
2.34833e-05
2.36484e-05
2.33369e-05
2.33498e-05
2.33524e-05
2.31508e-05
2.35851e-05
2.32761e-05
2.3288e-05
2.32897e-05
2.33574e-05
2.35181e-05
2.32117e-05
2.32225e-05
2.32233e-05
2.32997e-05
2.34527e-05
2.31487e-05
2.31585e-05
2.32254e-05
)
;

boundaryField
{
    inlet
    {
        type            calculated;
        value           uniform 0;
    }
    outlet2
    {
        type            calculated;
        value           uniform 0;
    }
    outlet1
    {
        type            calculated;
        value           nonuniform List<scalar> 0();
    }
    wall
    {
        type            calculated;
        value           uniform 0;
    }
    symmetryBottom
    {
        type            symmetry;
    }
    symmetryZ0
    {
        type            symmetry;
    }
    symmetryZ05
    {
        type            symmetry;
    }
    procBoundary1to0
    {
        type            processor;
        value           uniform 0;
    }
}


// ************************************************************************* //
