/*--------------------------------*- C++ -*----------------------------------*\
| =========                 |                                                 |
| \\      /  F ield         | OpenFOAM: The Open Source CFD Toolbox           |
|  \\    /   O peration     | Version:  2412                                  |
|   \\  /    A nd           | Website:  www.openfoam.com                      |
|    \\/     M anipulation  |                                                 |
\*---------------------------------------------------------------------------*/
FoamFile
{
    version     2.0;
    format      ascii;
    arch        "LSB;label=32;scalar=64";
    class       volScalarField;
    location    "2.7e-06";
    object      E;
}
// * * * * * * * * * * * * * * * * * * * * * * * * * * * * * * * * * * * * * //

dimensions      [0 0 0 0 0 0 0];

internalField   nonuniform List<scalar> 
84
(
99.032
82.7001
83.409
83.3903
83.3919
83.3931
83.3943
83.6378
101.534
84.8356
85.5931
85.6071
85.6428
85.6792
85.7168
85.9653
101.174
84.7049
85.3633
85.3788
85.4107
85.4434
85.4772
85.7252
100.968
84.4241
85.1708
85.1788
85.2083
85.2382
85.4857
100.796
84.1992
84.9433
84.9478
84.9735
84.9997
85.2467
100.538
83.9782
84.7173
84.7182
84.7404
84.7628
85.0093
100.285
83.7624
84.4962
84.4938
84.5124
84.5311
84.7771
99.9808
83.5991
84.2757
84.2727
84.2877
84.3028
84.5484
99.7753
83.3683
84.092
84.0835
84.0958
84.3409
99.4922
83.0835
83.8021
83.7893
83.797
84.0414
99.2227
82.876
83.5883
83.5721
83.5763
83.8203
98.7241
82.6875
83.3651
83.3469
83.3475
83.3478
83.5913
)
;

boundaryField
{
    inlet
    {
        type            calculated;
        value           nonuniform List<scalar> 0();
    }
    outlet2
    {
        type            calculated;
        value           uniform 0;
    }
    outlet1
    {
        type            calculated;
        value           uniform 0;
    }
    wall
    {
        type            calculated;
        value           uniform 0;
    }
    symmetryBottom
    {
        type            symmetry;
    }
    symmetryZ0
    {
        type            symmetry;
    }
    symmetryZ05
    {
        type            symmetry;
    }
    procBoundary0to1
    {
        type            processor;
        value           uniform 0;
    }
}


// ************************************************************************* //
