/*--------------------------------*- C++ -*----------------------------------*\
| =========                 |                                                 |
| \\      /  F ield         | OpenFOAM: The Open Source CFD Toolbox           |
|  \\    /   O peration     | Version:  2412                                  |
|   \\  /    A nd           | Website:  www.openfoam.com                      |
|    \\/     M anipulation  |                                                 |
\*---------------------------------------------------------------------------*/
FoamFile
{
    version     2.0;
    format      ascii;
    arch        "LSB;label=32;scalar=64";
    class       volScalarField;
    location    "2.7e-06";
    object      rho_dof0;
}
// * * * * * * * * * * * * * * * * * * * * * * * * * * * * * * * * * * * * * //

dimensions      [0 0 0 0 0 0 0];

internalField   nonuniform List<scalar> 
84
(
2.8006e-05
2.34376e-05
2.36337e-05
2.36287e-05
2.36292e-05
2.36296e-05
2.36301e-05
2.36982e-05
2.86983e-05
2.40294e-05
2.42389e-05
2.4243e-05
2.4253e-05
2.42632e-05
2.42737e-05
2.43432e-05
2.8598e-05
2.39925e-05
2.41746e-05
2.41791e-05
2.4188e-05
2.41972e-05
2.42066e-05
2.4276e-05
2.85403e-05
2.39142e-05
2.41207e-05
2.41231e-05
2.41314e-05
2.41397e-05
2.4209e-05
2.8492e-05
2.38513e-05
2.40571e-05
2.40584e-05
2.40657e-05
2.4073e-05
2.41421e-05
2.84194e-05
2.37891e-05
2.39934e-05
2.39938e-05
2.4e-05
2.40063e-05
2.40752e-05
2.83468e-05
2.37271e-05
2.39299e-05
2.39293e-05
2.39345e-05
2.39397e-05
2.40085e-05
2.82596e-05
2.36793e-05
2.38662e-05
2.38654e-05
2.38695e-05
2.38737e-05
2.39424e-05
2.81921e-05
2.36057e-05
2.38055e-05
2.3803e-05
2.38062e-05
2.38748e-05
2.81358e-05
2.35455e-05
2.37444e-05
2.3741e-05
2.37433e-05
2.38117e-05
2.80547e-05
2.34827e-05
2.36797e-05
2.36753e-05
2.36765e-05
2.37448e-05
2.79132e-05
2.34288e-05
2.3616e-05
2.36111e-05
2.36113e-05
2.36113e-05
2.36795e-05
)
;

boundaryField
{
    inlet
    {
        type            calculated;
        value           nonuniform List<scalar> 0();
    }
    outlet2
    {
        type            calculated;
        value           uniform 2.81085e-05;
    }
    outlet1
    {
        type            calculated;
        value           uniform 2.81085e-05;
    }
    wall
    {
        type            calculated;
        value           uniform 2.81085e-05;
    }
    symmetryBottom
    {
        type            symmetry;
    }
    symmetryZ0
    {
        type            symmetry;
    }
    symmetryZ05
    {
        type            symmetry;
    }
    procBoundary0to1
    {
        type            processor;
        value           uniform 2.81085e-05;
    }
}


// ************************************************************************* //
