/*--------------------------------*- C++ -*----------------------------------*\
| =========                 |                                                 |
| \\      /  F ield         | OpenFOAM: The Open Source CFD Toolbox           |
|  \\    /   O peration     | Version:  2412                                  |
|   \\  /    A nd           | Website:  www.openfoam.com                      |
|    \\/     M anipulation  |                                                 |
\*---------------------------------------------------------------------------*/
FoamFile
{
    version     2.0;
    format      ascii;
    arch        "LSB;label=32;scalar=64";
    class       volVectorField;
    location    "2.7e-06";
    object      rhoU_dof0;
}
// * * * * * * * * * * * * * * * * * * * * * * * * * * * * * * * * * * * * * //

dimensions      [0 0 0 0 0 0 0];

internalField   nonuniform List<vector> 
84
(
(0.0738155 7.92552e-05 8.15571e-20)
(0.0617071 6.75535e-05 -8.19209e-20)
(0.0622297 6.90899e-05 -1.89538e-19)
(0.0622161 7.0101e-05 8.82623e-20)
(0.0622173 7.1158e-05 -3.91374e-21)
(0.0622182 7.22472e-05 1.05565e-20)
(0.0622192 7.33702e-05 1.76204e-19)
(0.0623998 7.35295e-05 3.91294e-20)
(0.0756662 -8.16139e-05 8.50765e-20)
(0.063288 -7.01882e-05 -7.9548e-20)
(0.0638465 -7.17523e-05 -2.2865e-19)
(0.0638571 -7.28483e-05 1.24484e-20)
(0.0638835 -7.39915e-05 -4.05888e-19)
(0.0639105 -7.51709e-05 6.01989e-20)
(0.0639384 -7.63886e-05 3.29375e-19)
(0.0641226 -7.65427e-05 7.00875e-20)
(0.0753999 -7.75892e-05 -3.79919e-19)
(0.0631906 -7.31491e-05 5.7226e-20)
(0.0636761 -7.14168e-05 1.16078e-19)
(0.0636877 -7.26747e-05 -6.36051e-21)
(0.0637114 -7.38076e-05 -3.10672e-21)
(0.0637357 -7.49814e-05 1.64322e-19)
(0.0637607 -7.61929e-05 -1.3035e-19)
(0.0639446 -7.63467e-05 -1.66661e-19)
(0.0752469 -7.9414e-05 -3.76852e-19)
(0.0629827 -7.09763e-05 1.73014e-19)
(0.0635333 -7.25042e-05 -8.49876e-21)
(0.0635394 -7.36242e-05 -3.68403e-19)
(0.0635613 -7.47923e-05 3.45356e-19)
(0.0635835 -7.59977e-05 7.23322e-20)
(0.063767 -7.61513e-05 -1.30488e-19)
(0.0751191 -8.22916e-05 -2.05131e-19)
(0.0628159 -7.07287e-05 -7.03953e-20)
(0.0633646 -7.23369e-05 3.21176e-21)
(0.0633681 -7.345e-05 9.5463e-22)
(0.0633872 -7.46126e-05 -1.18455e-19)
(0.0634066 -7.58124e-05 9.08565e-20)
(0.0635897 -7.59658e-05 2.42664e-19)
(0.0749263 -7.84381e-05 -1.25732e-19)
(0.0626507 -6.73525e-05 2.0344e-19)
(0.0631956 -6.88961e-05 -8.71845e-21)
(0.0631965 -6.99628e-05 2.43457e-19)
(0.0632128 -7.10772e-05 -2.16442e-19)
(0.0632294 -7.22274e-05 1.82317e-19)
(0.0634122 -7.23745e-05 -3.95819e-19)
(0.0747325 -6.30991e-05 -2.43701e-23)
(0.0624852 -5.41571e-05 1.99287e-19)
(0.063026 -5.53886e-05 -8.59822e-21)
(0.0630243 -5.62439e-05 -4.00768e-22)
(0.0630379 -5.7137e-05 2.04241e-19)
(0.0630517 -5.80587e-05 3.15244e-20)
(0.0632341 -5.81778e-05 2.14647e-19)
(0.0745007 -5.01152e-05 1.26292e-21)
(0.0623581 -4.81775e-05 8.56256e-22)
(0.0628567 -4.66322e-05 -6.72866e-22)
(0.0628544 -4.74882e-05 -1.14188e-21)
(0.0628653 -4.82405e-05 -1.81382e-22)
(0.0628763 -4.9021e-05 3.44202e-22)
(0.0630583 -4.91222e-05 -1.68977e-19)
(0.0743213 -4.6987e-05 4.54855e-19)
(0.0621625 -4.17887e-05 -1.89053e-20)
(0.0626951 -4.27112e-05 -4.07421e-19)
(0.0626884 -4.33748e-05 -1.50007e-19)
(0.0626969 -4.40677e-05 2.14276e-19)
(0.0628785 -4.41598e-05 -1.27276e-22)
(0.074173 -4.84471e-05 -1.57936e-19)
(0.062005 -4.14447e-05 6.78348e-21)
(0.0625352 -4.23984e-05 -2.0066e-19)
(0.0625261 -4.30437e-05 2.09684e-19)
(0.0625321 -4.37183e-05 3.54647e-19)
(0.0627134 -4.38107e-05 -1.6164e-20)
(0.0739587 -5.27306e-05 -2.13634e-19)
(0.0618388 -4.66785e-05 9.03611e-21)
(0.062364 -4.76595e-05 -3.57407e-23)
(0.0623523 -4.83911e-05 3.59938e-19)
(0.0623554 -4.91531e-05 3.86771e-19)
(0.0625363 -4.92568e-05 2.64288e-20)
(0.0735842 -3.74394e-06 -8.14056e-21)
(0.0616964 -5.84906e-05 2.22251e-22)
(0.0621958 -5.60881e-05 -4.37666e-24)
(0.0621825 -5.70588e-05 2.32547e-19)
(0.062183 -5.79373e-05 -1.04435e-20)
(0.0621832 -5.88463e-05 2.90297e-22)
(0.0623637 -5.89723e-05 -2.12271e-19)
)
;

boundaryField
{
    inlet
    {
        type            calculated;
        value           nonuniform List<vector> 0();
    }
    outlet2
    {
        type            calculated;
        value           uniform (0.0741049 0 0);
    }
    outlet1
    {
        type            calculated;
        value           uniform (0.0741049 0 0);
    }
    wall
    {
        type            calculated;
        value           uniform (0.0741049 0 0);
    }
    symmetryBottom
    {
        type            symmetry;
    }
    symmetryZ0
    {
        type            symmetry;
    }
    symmetryZ05
    {
        type            symmetry;
    }
    procBoundary0to1
    {
        type            processor;
        value           uniform (0.0741049 0 0);
    }
}


// ************************************************************************* //
