/*--------------------------------*- C++ -*----------------------------------*\
| =========                 |                                                 |
| \\      /  F ield         | OpenFOAM: The Open Source CFD Toolbox           |
|  \\    /   O peration     | Version:  2412                                  |
|   \\  /    A nd           | Website:  www.openfoam.com                      |
|    \\/     M anipulation  |                                                 |
\*---------------------------------------------------------------------------*/
FoamFile
{
    version     2.0;
    format      ascii;
    arch        "LSB;label=32;scalar=64";
    class       volScalarField;
    location    "8.5e-06";
    object      E;
}
// * * * * * * * * * * * * * * * * * * * * * * * * * * * * * * * * * * * * * //

dimensions      [0 0 0 0 0 0 0];

internalField   nonuniform List<scalar> 
84
(
116.135
11.9953
20.3952
116.17
12.0655
19.7922
116.191
12.0612
19.871
116.191
12.0531
19.9496
116.192
12.045
20.0281
116.193
12.037
20.1061
116.193
12.029
20.1837
116.194
12.021
20.261
116.195
12.013
20.3378
116.195
12.0051
20.4143
116.196
11.9972
20.4903
116.197
11.9892
20.566
61.1249
57.9075
55.5943
65.1259
61.5764
59.1063
64.6661
61.1541
58.7429
64.1512
60.5642
61.2659
53.071
63.636
60.1088
60.441
57.7839
63.1252
59.6422
59.9579
57.3886
62.6184
59.179
59.4838
56.9379
62.1155
58.7194
59.0126
56.5077
61.6164
58.266
58.4457
58.7186
53.7216
61.1212
57.8131
57.9907
58.0942
55.6023
60.6297
57.3639
57.5328
57.6237
55.2149
60.1425
56.9162
57.166
54.7913
)
;

boundaryField
{
    inlet
    {
        type            calculated;
        value           uniform 0;
    }
    outlet2
    {
        type            calculated;
        value           uniform 0;
    }
    outlet1
    {
        type            calculated;
        value           nonuniform List<scalar> 0();
    }
    wall
    {
        type            calculated;
        value           uniform 0;
    }
    symmetryBottom
    {
        type            symmetry;
    }
    symmetryZ0
    {
        type            symmetry;
    }
    symmetryZ05
    {
        type            symmetry;
    }
    procBoundary1to0
    {
        type            processor;
        value           uniform 0;
    }
}


// ************************************************************************* //
