/*--------------------------------*- C++ -*----------------------------------*\
| =========                 |                                                 |
| \\      /  F ield         | OpenFOAM: The Open Source CFD Toolbox           |
|  \\    /   O peration     | Version:  2412                                  |
|   \\  /    A nd           | Website:  www.openfoam.com                      |
|    \\/     M anipulation  |                                                 |
\*---------------------------------------------------------------------------*/
FoamFile
{
    version     2.0;
    format      ascii;
    arch        "LSB;label=32;scalar=64";
    class       volScalarField;
    location    "8.5e-06";
    object      rho;
}
// * * * * * * * * * * * * * * * * * * * * * * * * * * * * * * * * * * * * * //

dimensions      [0 0 0 0 0 0 0];

internalField   nonuniform List<scalar> 
84
(
3.27359e-05
3.57452e-06
5.89777e-06
3.27457e-05
3.59399e-06
5.73006e-06
3.27516e-05
3.59285e-06
5.75198e-06
3.27518e-05
3.59063e-06
5.7738e-06
3.27519e-05
3.58841e-06
5.79559e-06
3.27521e-05
3.5862e-06
5.81725e-06
3.27523e-05
3.584e-06
5.83881e-06
3.27525e-05
3.58181e-06
5.86025e-06
3.27527e-05
3.57962e-06
5.88159e-06
3.27529e-05
3.57745e-06
5.90282e-06
3.27531e-05
3.57527e-06
5.92394e-06
3.27534e-05
3.57308e-06
5.94494e-06
1.73694e-05
1.64751e-05
1.58366e-05
1.84918e-05
1.75057e-05
1.68241e-05
1.83627e-05
1.7387e-05
1.67215e-05
1.82182e-05
1.72221e-05
1.74159e-05
1.51309e-05
1.80737e-05
1.70941e-05
1.71854e-05
1.64522e-05
1.79304e-05
1.69629e-05
1.70496e-05
1.63408e-05
1.77881e-05
1.68327e-05
1.69164e-05
1.6214e-05
1.7647e-05
1.67035e-05
1.6784e-05
1.60928e-05
1.75069e-05
1.6576e-05
1.66255e-05
1.67008e-05
1.5311e-05
1.73679e-05
1.64487e-05
1.64976e-05
1.65259e-05
1.58381e-05
1.72299e-05
1.63224e-05
1.63688e-05
1.63937e-05
1.57288e-05
1.70931e-05
1.61965e-05
1.62649e-05
1.56095e-05
)
;

boundaryField
{
    inlet
    {
        type            calculated;
        value           uniform 0;
    }
    outlet2
    {
        type            calculated;
        value           uniform 0;
    }
    outlet1
    {
        type            calculated;
        value           nonuniform List<scalar> 0();
    }
    wall
    {
        type            calculated;
        value           uniform 0;
    }
    symmetryBottom
    {
        type            symmetry;
    }
    symmetryZ0
    {
        type            symmetry;
    }
    symmetryZ05
    {
        type            symmetry;
    }
    procBoundary1to0
    {
        type            processor;
        value           uniform 0;
    }
}


// ************************************************************************* //
