/*--------------------------------*- C++ -*----------------------------------*\
| =========                 |                                                 |
| \\      /  F ield         | OpenFOAM: The Open Source CFD Toolbox           |
|  \\    /   O peration     | Version:  2412                                  |
|   \\  /    A nd           | Website:  www.openfoam.com                      |
|    \\/     M anipulation  |                                                 |
\*---------------------------------------------------------------------------*/
FoamFile
{
    version     2.0;
    format      ascii;
    arch        "LSB;label=32;scalar=64";
    class       volVectorField;
    location    "8.5e-06";
    object      rhoU_dof0;
}
// * * * * * * * * * * * * * * * * * * * * * * * * * * * * * * * * * * * * * //

dimensions      [0 0 0 0 0 0 0];

internalField   nonuniform List<vector> 
84
(
(0.0864313 1.69149e-07 -3.0134e-21)
(0.00917692 -4.28534e-07 2.30145e-20)
(0.0153717 4.13561e-08 -1.23363e-19)
(0.0864571 -0.000237549 -3.19193e-21)
(0.00922884 -3.62412e-05 2.42959e-20)
(0.0149249 -5.02953e-05 -1.29212e-19)
(0.0864725 -0.000237592 4.19605e-21)
(0.0092257 -3.62683e-05 -3.18809e-20)
(0.0149831 -5.01113e-05 1.69395e-19)
(0.086473 -0.0002376 -5.47988e-21)
(0.00921975 -3.62517e-05 4.15752e-20)
(0.0150412 -5.02901e-05 -2.22994e-19)
(0.0864736 -0.000237602 -9.74137e-21)
(0.00921382 -3.62336e-05 7.3451e-20)
(0.0150991 -5.04715e-05 -3.8344e-19)
(0.0864741 -0.000237603 5.33612e-21)
(0.00920791 -3.62157e-05 -4.0194e-20)
(0.0151568 -5.06512e-05 2.13454e-19)
(0.0864746 -0.000237605 -7.14104e-21)
(0.00920202 -3.61978e-05 5.41572e-20)
(0.0152141 -5.083e-05 -2.87793e-19)
(0.0864751 -0.000237606 -8.28935e-21)
(0.00919615 -3.618e-05 6.27898e-20)
(0.0152712 -5.10078e-05 -3.34269e-19)
(0.0864756 -0.000237608 3.08604e-21)
(0.00919031 -3.61622e-05 -2.33194e-20)
(0.015328 -5.11849e-05 1.22488e-19)
(0.0864761 -0.000237609 -7.03895e-21)
(0.00918448 -3.61445e-05 5.39039e-20)
(0.0153845 -5.13609e-05 -2.9179e-19)
(0.0864766 -0.000237611 -1.82516e-20)
(0.00917866 -3.61267e-05 1.39151e-19)
(0.0154406 -5.15361e-05 -7.44667e-19)
(0.0864775 -0.000237811 4.88231e-24)
(0.00917279 -3.57207e-05 -1.05485e-22)
(0.0154965 -5.14031e-05 1.71491e-21)
(0.0456653 -2.69817e-06 -1.5114e-21)
(0.0432877 -2.58856e-06 1.81521e-19)
(0.0415839 -2.51369e-06 -1.46605e-20)
(0.0486424 -0.000157552 -9.51749e-22)
(0.0460194 -0.000151811 1.8562e-19)
(0.0442001 -0.000145222 -1.77124e-20)
(0.0483008 -0.000159081 -1.02808e-20)
(0.0457055 -0.000153189 -6.55019e-20)
(0.0439294 -0.000148091 -2.70701e-19)
(0.0479185 -0.000157903 1.96833e-20)
(0.0452683 -0.000151161 -3.50033e-21)
(0.0457852 -0.00016723 -2.3905e-20)
(0.039719 4.19085e-05 3.46478e-19)
(0.0475359 -0.000156658 -5.11467e-20)
(0.0449298 -0.000150533 1.6904e-21)
(0.045174 -0.000153931 -2.37084e-20)
(0.0432171 -0.000143398 3.1158e-19)
(0.0471566 -0.000155438 -7.01456e-21)
(0.044583 -0.000149411 -1.8259e-19)
(0.044815 -0.000152478 -6.48744e-21)
(0.0429229 -0.000145418 2.1346e-19)
(0.0467802 -0.000154228 2.48293e-20)
(0.0442388 -0.000148284 -3.16482e-21)
(0.0444627 -0.000151304 -1.72548e-21)
(0.0425877 -0.000144346 -2.7532e-22)
(0.0464067 -0.000153026 4.33073e-20)
(0.0438972 -0.000147167 -1.94061e-19)
(0.0441126 -0.000150093 1.90515e-19)
(0.0422676 -0.000144507 9.3552e-22)
(0.0460361 -0.000151833 8.11685e-21)
(0.0435601 -0.000146086 -2.49884e-19)
(0.0436923 -0.000148053 -2.61347e-19)
(0.0438933 -0.000163332 1.64471e-19)
(0.040199 4.11316e-05 1.73552e-18)
(0.0456682 -0.00015065 4.51493e-20)
(0.0432235 -0.000144968 -2.76687e-19)
(0.0433541 -0.000147428 1.71327e-19)
(0.04343 -0.000150119 4.11921e-19)
(0.0415945 -0.000141825 2.85098e-19)
(0.0453032 -0.000149475 6.76049e-20)
(0.0428896 -0.000143873 -3.76711e-21)
(0.0430137 -0.000146339 1.04874e-22)
(0.0430803 -0.00014788 1.70531e-20)
(0.0413061 -0.0001558 -2.28739e-19)
(0.0449413 -0.000148261 -1.87829e-20)
(0.0425568 -0.000142698 2.71563e-19)
(0.0427401 -0.000144839 1.15721e-20)
(0.0409908 -0.000154428 -4.38038e-19)
)
;

boundaryField
{
    inlet
    {
        type            calculated;
        value           uniform (0.0741049 0 0);
    }
    outlet2
    {
        type            calculated;
        value           uniform (0.0741049 0 0);
    }
    outlet1
    {
        type            calculated;
        value           nonuniform List<vector> 0();
    }
    wall
    {
        type            calculated;
        value           uniform (0.0741049 0 0);
    }
    symmetryBottom
    {
        type            symmetry;
    }
    symmetryZ0
    {
        type            symmetry;
    }
    symmetryZ05
    {
        type            symmetry;
    }
    procBoundary1to0
    {
        type            processor;
        value           uniform (0.0741049 0 0);
    }
}


// ************************************************************************* //
