/*--------------------------------*- C++ -*----------------------------------*\
| =========                 |                                                 |
| \\      /  F ield         | OpenFOAM: The Open Source CFD Toolbox           |
|  \\    /   O peration     | Version:  2412                                  |
|   \\  /    A nd           | Website:  www.openfoam.com                      |
|    \\/     M anipulation  |                                                 |
\*---------------------------------------------------------------------------*/
FoamFile
{
    version     2.0;
    format      ascii;
    arch        "LSB;label=32;scalar=64";
    class       volScalarField;
    location    "5.2e-06";
    object      E_dof0;
}
// * * * * * * * * * * * * * * * * * * * * * * * * * * * * * * * * * * * * * //

dimensions      [0 0 0 0 0 0 0];

internalField   nonuniform List<scalar> 
84
(
99.4366
31.5928
44.6114
99.4604
31.6159
44.6326
99.4543
31.6129
44.629
99.4543
31.6129
44.629
99.4543
31.6129
44.629
99.4543
31.6129
44.629
99.4543
31.6129
44.629
99.4543
31.6129
44.629
99.4543
31.6129
44.629
99.4543
31.6129
44.629
99.4543
31.6129
44.6289
99.4545
31.6077
44.6259
73.5483
70.734
71.2704
77.2256
74.0977
74.669
76.8407
73.7454
74.3098
76.4574
73.3948
73.6203
70.5862
76.0753
73.0453
73.2634
73.6392
75.6953
72.6976
72.9083
73.2829
75.3242
72.3577
72.5612
72.9345
74.9614
72.0252
72.2219
72.592
74.6289
71.7177
71.9082
71.9175
70.7248
74.1622
71.2975
71.4785
71.4815
71.8553
73.8079
70.9723
71.1465
71.1458
71.6102
73.45
70.644
70.8116
71.1777
)
;

boundaryField
{
    inlet
    {
        type            calculated;
        value           uniform 99.4306;
    }
    outlet2
    {
        type            calculated;
        value           uniform 99.4306;
    }
    outlet1
    {
        type            calculated;
        value           nonuniform List<scalar> 0();
    }
    wall
    {
        type            calculated;
        value           uniform 99.4306;
    }
    symmetryBottom
    {
        type            symmetry;
    }
    symmetryZ0
    {
        type            symmetry;
    }
    symmetryZ05
    {
        type            symmetry;
    }
    procBoundary1to0
    {
        type            processor;
        value           uniform 99.4306;
    }
}


// ************************************************************************* //
