/*--------------------------------*- C++ -*----------------------------------*\
| =========                 |                                                 |
| \\      /  F ield         | OpenFOAM: The Open Source CFD Toolbox           |
|  \\    /   O peration     | Version:  2412                                  |
|   \\  /    A nd           | Website:  www.openfoam.com                      |
|    \\/     M anipulation  |                                                 |
\*---------------------------------------------------------------------------*/
FoamFile
{
    version     2.0;
    format      ascii;
    arch        "LSB;label=32;scalar=64";
    class       volScalarField;
    location    "5.2e-06";
    object      rho;
}
// * * * * * * * * * * * * * * * * * * * * * * * * * * * * * * * * * * * * * //

dimensions      [0 0 0 0 0 0 0];

internalField   nonuniform List<scalar> 
84
(
2.81102e-05
9.11254e-06
1.2719e-05
2.81169e-05
9.11916e-06
1.27251e-05
2.81152e-05
9.11832e-06
1.27241e-05
2.81152e-05
9.11832e-06
1.27241e-05
2.81152e-05
9.11832e-06
1.27241e-05
2.81152e-05
9.11832e-06
1.27241e-05
2.81152e-05
9.11832e-06
1.27241e-05
2.81152e-05
9.11832e-06
1.27241e-05
2.81152e-05
9.11832e-06
1.27241e-05
2.81152e-05
9.11832e-06
1.27241e-05
2.81152e-05
9.11831e-06
1.2724e-05
2.81153e-05
9.11685e-06
1.27232e-05
2.08679e-05
2.00865e-05
2.02358e-05
2.18876e-05
2.10202e-05
2.11791e-05
2.17798e-05
2.09214e-05
2.10784e-05
2.16725e-05
2.08231e-05
2.08852e-05
2.00352e-05
2.15655e-05
2.07251e-05
2.07851e-05
2.08904e-05
2.14585e-05
2.06272e-05
2.06851e-05
2.07901e-05
2.13518e-05
2.05295e-05
2.05853e-05
2.069e-05
2.12468e-05
2.04333e-05
2.04872e-05
2.05909e-05
2.11372e-05
2.03331e-05
2.03848e-05
2.03871e-05
2.00768e-05
2.10409e-05
2.02447e-05
2.02946e-05
2.02957e-05
2.04008e-05
2.09336e-05
2.01465e-05
2.01943e-05
2.01943e-05
2.03243e-05
2.08315e-05
2.00527e-05
2.00987e-05
2.02013e-05
)
;

boundaryField
{
    inlet
    {
        type            calculated;
        value           uniform 0;
    }
    outlet2
    {
        type            calculated;
        value           uniform 0;
    }
    outlet1
    {
        type            calculated;
        value           nonuniform List<scalar> 0();
    }
    wall
    {
        type            calculated;
        value           uniform 0;
    }
    symmetryBottom
    {
        type            symmetry;
    }
    symmetryZ0
    {
        type            symmetry;
    }
    symmetryZ05
    {
        type            symmetry;
    }
    procBoundary1to0
    {
        type            processor;
        value           uniform 0;
    }
}


// ************************************************************************* //
