/*--------------------------------*- C++ -*----------------------------------*\
| =========                 |                                                 |
| \\      /  F ield         | OpenFOAM: The Open Source CFD Toolbox           |
|  \\    /   O peration     | Version:  2412                                  |
|   \\  /    A nd           | Website:  www.openfoam.com                      |
|    \\/     M anipulation  |                                                 |
\*---------------------------------------------------------------------------*/
FoamFile
{
    version     2.0;
    format      ascii;
    arch        "LSB;label=32;scalar=64";
    class       volScalarField;
    location    "5.2e-06";
    object      T;
}
// * * * * * * * * * * * * * * * * * * * * * * * * * * * * * * * * * * * * * //

dimensions      [0 0 0 0 0 0 0];

internalField   nonuniform List<scalar> 
84
(
200.008
199.158
200.129
199.979
199.086
200.076
199.972
199.075
200.066
199.972
199.075
200.066
199.972
199.075
200.066
199.972
199.075
200.066
199.972
199.075
200.066
199.972
199.075
200.066
199.972
199.075
200.066
199.972
199.075
200.066
199.972
199.075
200.066
199.972
199.055
200.058
203.261
203.087
203.1
200.02
199.993
199.999
200.02
199.993
199.999
200.02
199.993
199.999
200.02
200.023
199.996
200.002
200.002
200.538
200.483
200.495
200.494
202.914
202.749
202.805
202.8
205.154
204.883
204.979
204.971
214.513
213.711
213.995
214.214
198.855
194.502
194.702
194.611
194.53
194.327
198.698
198.732
198.714
198.695
198.778
199.466
199.464
199.46
199.46
)
;

boundaryField
{
    inlet
    {
        type            calculated;
        value           uniform 0;
    }
    outlet2
    {
        type            calculated;
        value           uniform 0;
    }
    outlet1
    {
        type            calculated;
        value           nonuniform List<scalar> 0();
    }
    wall
    {
        type            calculated;
        value           uniform 0;
    }
    symmetryBottom
    {
        type            symmetry;
    }
    symmetryZ0
    {
        type            symmetry;
    }
    symmetryZ05
    {
        type            symmetry;
    }
    procBoundary1to0
    {
        type            processor;
        value           uniform 0;
    }
}


// ************************************************************************* //
