/*--------------------------------*- C++ -*----------------------------------*\
| =========                 |                                                 |
| \\      /  F ield         | OpenFOAM: The Open Source CFD Toolbox           |
|  \\    /   O peration     | Version:  2412                                  |
|   \\  /    A nd           | Website:  www.openfoam.com                      |
|    \\/     M anipulation  |                                                 |
\*---------------------------------------------------------------------------*/
FoamFile
{
    version     2.0;
    format      ascii;
    arch        "LSB;label=32;scalar=64";
    class       volVectorField;
    location    "1.6e-06";
    object      rhoU;
}
// * * * * * * * * * * * * * * * * * * * * * * * * * * * * * * * * * * * * * //

dimensions      [0 0 0 0 0 0 0];

internalField   nonuniform List<vector> 
84
(
(0.0741053 -4.35456e-08 0)
(0.0563301 -1.85836e-07 0)
(0.0573807 -1.6956e-07 -4.99607e-20)
(0.0741072 -4.22124e-05 0)
(0.0563352 -3.48086e-05 0)
(0.0573854 -3.52669e-05 -4.99605e-20)
(0.0741068 -4.21628e-05 0)
(0.0563348 -3.47675e-05 0)
(0.0573849 -3.52252e-05 7.96248e-20)
(0.0741068 -4.21628e-05 0)
(0.0563348 -3.47675e-05 0)
(0.0573849 -3.52252e-05 -1.04611e-19)
(0.0741068 -4.21628e-05 0)
(0.0563348 -3.47675e-05 0)
(0.0573849 -3.52252e-05 -1.73304e-19)
(0.0741068 -4.21628e-05 0)
(0.0563348 -3.47675e-05 0)
(0.0573849 -3.52252e-05 1.03044e-19)
(0.0741068 -4.21628e-05 0)
(0.0563348 -3.47675e-05 0)
(0.0573849 -3.52252e-05 -1.21785e-19)
(0.0741068 -4.21628e-05 0)
(0.0563348 -3.47675e-05 0)
(0.0573849 -3.52252e-05 -1.45201e-19)
(0.0741068 -4.21628e-05 0)
(0.0563348 -3.47675e-05 0)
(0.0573849 -3.52252e-05 5.15209e-20)
(0.0741068 -4.21628e-05 0)
(0.0563348 -3.47675e-05 0)
(0.0573849 -3.52252e-05 -1.21788e-19)
(0.0741068 -4.21628e-05 0)
(0.0563348 -3.47673e-05 0)
(0.0573849 -3.52249e-05 -3.07578e-19)
(0.0741068 -4.21688e-05 0)
(0.0563333 -3.46235e-05 0)
(0.0573837 -3.50979e-05 0)
(0.0670469 4.22942e-05 1.29407e-21)
(0.0667979 4.17785e-05 4.46711e-20)
(0.066902 4.18418e-05 4.39128e-21)
(0.0680277 -4.21393e-05 1.20395e-21)
(0.0677667 -4.259e-05 4.73322e-20)
(0.0678722 -4.26346e-05 -2.86613e-22)
(0.0679273 -4.20858e-05 -2.02256e-21)
(0.0676675 -4.25356e-05 -2.17955e-20)
(0.0677727 -4.25702e-05 -9.31795e-20)
(0.0678271 -4.20317e-05 2.64974e-21)
(0.0675685 -4.24812e-05 -7.63106e-22)
(0.0675841 -4.30936e-05 1.65446e-23)
(0.0667682 7.12424e-07 6.62646e-20)
(0.067727 -4.19793e-05 -2.19024e-20)
(0.0674695 -4.24285e-05 -1.58448e-22)
(0.0674837 -4.30394e-05 -7.24296e-22)
(0.067586 -4.30831e-05 6.52645e-20)
(0.0676267 -3.98242e-05 -2.57574e-21)
(0.0673705 -4.03006e-05 -4.72633e-20)
(0.0673832 -4.08819e-05 -1.81976e-22)
(0.0674853 -4.09238e-05 4.52023e-20)
(0.0675261 -3.18849e-05 2.88841e-21)
(0.0672711 -3.24513e-05 -1.10674e-22)
(0.0672823 -3.29157e-05 -3.11117e-22)
(0.0673844 -3.29499e-05 -3.74161e-22)
(0.0674264 -2.67354e-05 4.05082e-21)
(0.0671726 -2.73604e-05 -4.45129e-20)
(0.0671823 -2.77502e-05 4.94062e-20)
(0.0672842 -2.7772e-05 3.60424e-22)
(0.0673259 -2.41171e-05 -1.31287e-21)
(0.0670731 -2.4769e-05 -6.99083e-20)
(0.0670814 -2.51183e-05 -6.9438e-20)
(0.0670857 -2.54826e-05 7.42352e-20)
(0.0667795 7.67613e-07 4.8204e-19)
(0.0672292 -2.41418e-05 3.39275e-21)
(0.0669779 -2.47901e-05 -7.02039e-20)
(0.0669848 -2.51362e-05 4.71751e-20)
(0.0669877 -2.54973e-05 1.1566e-19)
(0.0670904 -2.55609e-05 7.55743e-20)
(0.0671295 -2.71948e-05 8.27945e-21)
(0.0668793 -2.78061e-05 -1.11174e-22)
(0.0668847 -2.81971e-05 9.1413e-23)
(0.0668863 -2.86103e-05 -6.35879e-24)
(0.0669952 -2.91211e-05 -6.86217e-20)
(0.0670307 -3.28113e-05 5.19174e-23)
(0.0667817 -3.33492e-05 6.76241e-20)
(0.0667857 -3.38204e-05 -1.65863e-21)
(0.0668872 -3.38528e-05 -1.16712e-19)
)
;

boundaryField
{
    inlet
    {
        type            calculated;
        value           uniform (0 0 0);
    }
    outlet2
    {
        type            calculated;
        value           uniform (0 0 0);
    }
    outlet1
    {
        type            calculated;
        value           nonuniform List<vector> 0();
    }
    wall
    {
        type            calculated;
        value           uniform (0 0 0);
    }
    symmetryBottom
    {
        type            symmetry;
    }
    symmetryZ0
    {
        type            symmetry;
    }
    symmetryZ05
    {
        type            symmetry;
    }
    procBoundary1to0
    {
        type            processor;
        value           uniform (0 0 0);
    }
}


// ************************************************************************* //
