/*--------------------------------*- C++ -*----------------------------------*\
| =========                 |                                                 |
| \\      /  F ield         | OpenFOAM: The Open Source CFD Toolbox           |
|  \\    /   O peration     | Version:  2412                                  |
|   \\  /    A nd           | Website:  www.openfoam.com                      |
|    \\/     M anipulation  |                                                 |
\*---------------------------------------------------------------------------*/
FoamFile
{
    version     2.0;
    format      ascii;
    arch        "LSB;label=32;scalar=64";
    class       volScalarField;
    location    "1.6e-06";
    object      T;
}
// * * * * * * * * * * * * * * * * * * * * * * * * * * * * * * * * * * * * * //

dimensions      [0 0 0 0 0 0 0];

internalField   nonuniform List<scalar> 
84
(
200.001
199.984
200.005
199.998
199.976
199.997
199.997
199.975
199.996
199.997
199.975
199.996
199.997
199.975
199.996
199.997
199.975
199.996
199.997
199.975
199.996
199.997
199.975
199.996
199.997
199.975
199.996
199.997
199.975
199.996
199.997
199.975
199.996
199.997
199.972
199.994
200.962
200.952
200.952
200.003
200
200
200.003
200
200
200.003
200
200
200.002
200.003
200
200
200
200.185
200.181
200.183
200.183
200.864
200.854
200.866
200.866
201.501
201.486
201.508
201.507
203.968
203.932
203.991
204.05
199.906
198.403
198.412
198.388
198.365
198.351
199.623
199.623
199.617
199.612
199.619
199.844
199.842
199.84
199.84
)
;

boundaryField
{
    inlet
    {
        type            calculated;
        value           uniform 0;
    }
    outlet2
    {
        type            calculated;
        value           uniform 0;
    }
    outlet1
    {
        type            calculated;
        value           nonuniform List<scalar> 0();
    }
    wall
    {
        type            calculated;
        value           uniform 0;
    }
    symmetryBottom
    {
        type            symmetry;
    }
    symmetryZ0
    {
        type            symmetry;
    }
    symmetryZ05
    {
        type            symmetry;
    }
    procBoundary1to0
    {
        type            processor;
        value           uniform 0;
    }
}


// ************************************************************************* //
