/*--------------------------------*- C++ -*----------------------------------*\
| =========                 |                                                 |
| \\      /  F ield         | OpenFOAM: The Open Source CFD Toolbox           |
|  \\    /   O peration     | Version:  2412                                  |
|   \\  /    A nd           | Website:  www.openfoam.com                      |
|    \\/     M anipulation  |                                                 |
\*---------------------------------------------------------------------------*/
FoamFile
{
    version     2.0;
    format      ascii;
    arch        "LSB;label=32;scalar=64";
    class       volScalarField;
    location    "6e-06";
    object      E;
}
// * * * * * * * * * * * * * * * * * * * * * * * * * * * * * * * * * * * * * //

dimensions      [0 0 0 0 0 0 0];

internalField   nonuniform List<scalar> 
84
(
96.9985
64.3127
67.5281
67.3237
67.3376
67.3413
67.3456
67.8073
102.464
68.0275
71.4737
71.3188
71.3952
71.4629
71.5332
72.0165
101.426
68.0825
71.0023
70.9007
70.9662
71.0271
71.0901
71.5712
101.011
67.3122
70.6936
70.5297
70.5942
70.6497
71.1285
100.821
66.8926
70.276
70.1053
70.1629
70.2112
70.6878
100.246
66.5006
69.859
69.6828
69.7334
69.7746
70.2491
99.6815
66.1195
69.4513
69.27
69.3138
69.3481
69.8204
98.8887
65.994
69.0241
68.8702
68.9053
68.9331
69.4033
98.4351
65.4309
68.7045
68.5143
68.5461
69.014
97.9514
64.9437
68.2027
68.0057
68.0297
68.4948
97.2912
64.5858
67.8048
67.6036
67.6208
68.0839
96.231
64.3369
67.3959
67.2041
67.214
67.2147
67.6762
)
;

boundaryField
{
    inlet
    {
        type            calculated;
        value           nonuniform List<scalar> 0();
    }
    outlet2
    {
        type            calculated;
        value           uniform 0;
    }
    outlet1
    {
        type            calculated;
        value           uniform 0;
    }
    wall
    {
        type            calculated;
        value           uniform 0;
    }
    symmetryBottom
    {
        type            symmetry;
    }
    symmetryZ0
    {
        type            symmetry;
    }
    symmetryZ05
    {
        type            symmetry;
    }
    procBoundary0to1
    {
        type            processor;
        value           uniform 0;
    }
}


// ************************************************************************* //
