/*--------------------------------*- C++ -*----------------------------------*\
| =========                 |                                                 |
| \\      /  F ield         | OpenFOAM: The Open Source CFD Toolbox           |
|  \\    /   O peration     | Version:  2412                                  |
|   \\  /    A nd           | Website:  www.openfoam.com                      |
|    \\/     M anipulation  |                                                 |
\*---------------------------------------------------------------------------*/
FoamFile
{
    version     2.0;
    format      ascii;
    arch        "LSB;label=32;scalar=64";
    class       volScalarField;
    location    "6e-06";
    object      rho_dof0;
}
// * * * * * * * * * * * * * * * * * * * * * * * * * * * * * * * * * * * * * //

dimensions      [0 0 0 0 0 0 0];

internalField   nonuniform List<scalar> 
84
(
2.74519e-05
1.82958e-05
1.91862e-05
1.91305e-05
1.91345e-05
1.91357e-05
1.91371e-05
1.92665e-05
2.89647e-05
1.93283e-05
2.02819e-05
2.02399e-05
2.02613e-05
2.02802e-05
2.03e-05
2.04354e-05
2.8676e-05
1.93419e-05
2.015e-05
2.01226e-05
2.0141e-05
2.0158e-05
2.01757e-05
2.03105e-05
2.85598e-05
1.91273e-05
2.00631e-05
2.00186e-05
2.00366e-05
2.00522e-05
2.01863e-05
2.85057e-05
1.90097e-05
1.99459e-05
1.98996e-05
1.99156e-05
1.99292e-05
2.00627e-05
2.83441e-05
1.88991e-05
1.98285e-05
1.97805e-05
1.97946e-05
1.98062e-05
1.99391e-05
2.8182e-05
1.87896e-05
1.97113e-05
1.96619e-05
1.9674e-05
1.96836e-05
1.98159e-05
2.79556e-05
1.87504e-05
1.95882e-05
1.95462e-05
1.95558e-05
1.95635e-05
1.96952e-05
2.78069e-05
1.85763e-05
1.94806e-05
1.94283e-05
1.94367e-05
1.95677e-05
2.77216e-05
1.84731e-05
1.93761e-05
1.93225e-05
1.93293e-05
1.94598e-05
2.7524e-05
1.83648e-05
1.9256e-05
1.92011e-05
1.92058e-05
1.93357e-05
2.72227e-05
1.82932e-05
1.91393e-05
1.90869e-05
1.90896e-05
1.90898e-05
1.92192e-05
)
;

boundaryField
{
    inlet
    {
        type            calculated;
        value           nonuniform List<scalar> 0();
    }
    outlet2
    {
        type            calculated;
        value           uniform 2.81085e-05;
    }
    outlet1
    {
        type            calculated;
        value           uniform 2.81085e-05;
    }
    wall
    {
        type            calculated;
        value           uniform 2.81085e-05;
    }
    symmetryBottom
    {
        type            symmetry;
    }
    symmetryZ0
    {
        type            symmetry;
    }
    symmetryZ05
    {
        type            symmetry;
    }
    procBoundary0to1
    {
        type            processor;
        value           uniform 2.81085e-05;
    }
}


// ************************************************************************* //
