/*--------------------------------*- C++ -*----------------------------------*\
| =========                 |                                                 |
| \\      /  F ield         | OpenFOAM: The Open Source CFD Toolbox           |
|  \\    /   O peration     | Version:  2412                                  |
|   \\  /    A nd           | Website:  www.openfoam.com                      |
|    \\/     M anipulation  |                                                 |
\*---------------------------------------------------------------------------*/
FoamFile
{
    version     2.0;
    format      ascii;
    arch        "LSB;label=32;scalar=64";
    class       volScalarField;
    location    "6e-06";
    object      T;
}
// * * * * * * * * * * * * * * * * * * * * * * * * * * * * * * * * * * * * * //

dimensions      [0 0 0 0 0 0 0];

internalField   nonuniform List<scalar> 
84
(
203.645
203.696
203.805
203.855
203.915
203.977
204.04
204.034
199.978
199.95
200.005
199.997
199.998
199.997
199.997
199.998
199.957
199.951
200.004
199.997
199.997
199.997
199.997
199.998
199.985
199.947
200.005
199.997
199.997
199.997
199.998
199.985
199.951
200.01
200.002
200.003
200.003
200.003
200.508
200.514
200.57
200.567
200.573
200.578
200.577
203.242
203.341
203.43
203.475
203.529
203.584
203.578
205.659
206.096
206.115
206.216
206.315
206.417
206.405
215.534
217.783
217.888
218.214
218.543
218.5
193.454
193.292
193.253
193.133
193.02
193.033
198.323
198.374
198.39
198.356
198.329
198.332
199.838
199.252
199.34
199.32
199.309
199.298
199.3
)
;

boundaryField
{
    inlet
    {
        type            calculated;
        value           nonuniform List<scalar> 0();
    }
    outlet2
    {
        type            calculated;
        value           uniform 0;
    }
    outlet1
    {
        type            calculated;
        value           uniform 0;
    }
    wall
    {
        type            calculated;
        value           uniform 0;
    }
    symmetryBottom
    {
        type            symmetry;
    }
    symmetryZ0
    {
        type            symmetry;
    }
    symmetryZ05
    {
        type            symmetry;
    }
    procBoundary0to1
    {
        type            processor;
        value           uniform 0;
    }
}


// ************************************************************************* //
