/*--------------------------------*- C++ -*----------------------------------*\
| =========                 |                                                 |
| \\      /  F ield         | OpenFOAM: The Open Source CFD Toolbox           |
|  \\    /   O peration     | Version:  2412                                  |
|   \\  /    A nd           | Website:  www.openfoam.com                      |
|    \\/     M anipulation  |                                                 |
\*---------------------------------------------------------------------------*/
FoamFile
{
    version     2.0;
    format      ascii;
    arch        "LSB;label=32;scalar=64";
    class       volVectorField;
    location    "1e-07";
    object      rhoU_dof0;
}
// * * * * * * * * * * * * * * * * * * * * * * * * * * * * * * * * * * * * * //

dimensions      [0 0 0 0 0 0 0];

internalField   nonuniform List<vector> 
84
(
(0.0741126 2.99421e-06 2.78944e-21)
(0.0736252 3.03802e-06 -2.73043e-21)
(0.0736252 3.08314e-06 -8.21162e-21)
(0.0736252 3.12962e-06 4.32197e-21)
(0.0736252 3.17753e-06 1.04415e-22)
(0.0736252 3.22692e-06 4.25882e-22)
(0.0736253 3.27787e-06 7.79757e-21)
(0.0736328 3.27787e-06 1.25581e-21)
(0.0741811 -2.97e-06 2.74024e-21)
(0.0736948 -3.01347e-06 -2.73043e-21)
(0.0736958 -3.05822e-06 -9.64776e-21)
(0.0736969 -3.10433e-06 1.02841e-22)
(0.073698 -3.15184e-06 -1.70304e-20)
(0.0736991 -3.20083e-06 1.55614e-21)
(0.0737003 -3.25137e-06 1.33647e-20)
(0.0737079 -3.25137e-06 2.99984e-21)
(0.0741742 -2.97e-06 -1.48991e-20)
(0.0736877 -3.01347e-06 2.73043e-21)
(0.0736887 -3.05822e-06 5.54195e-21)
(0.0736897 -3.10433e-06 -5.14207e-23)
(0.0736907 -3.15184e-06 -5.22077e-23)
(0.0736917 -3.20083e-06 7.19747e-21)
(0.0736927 -3.25137e-06 -4.36512e-21)
(0.0737003 -3.25137e-06 -5.99969e-21)
(0.0741682 -3.01347e-06 -1.36521e-20)
(0.0736816 -3.05822e-06 6.92744e-21)
(0.0736824 -3.10433e-06 -5.14207e-23)
(0.0736833 -3.15184e-06 -1.43312e-20)
(0.0736842 -3.20083e-06 1.4501e-20)
(0.0736852 -3.25137e-06 4.47284e-21)
(0.0736927 -3.25137e-06 -4.47284e-21)
(0.0741611 -3.01347e-06 -8.19128e-21)
(0.0736744 -3.05822e-06 -2.82163e-21)
(0.0736752 -3.10433e-06 0)
(0.0736759 -3.15184e-06 0)
(0.0736767 -3.20083e-06 -4.29727e-21)
(0.0736776 -3.25137e-06 4.41898e-21)
(0.0736852 -3.25137e-06 1.0311e-20)
(0.0741541 -2.85557e-06 -5.46085e-21)
(0.0736673 -2.89798e-06 8.31293e-21)
(0.0736679 -2.94167e-06 0)
(0.0736686 -2.98669e-06 9.99531e-21)
(0.0736693 -3.03312e-06 -8.70058e-21)
(0.07367 -3.08101e-06 7.36497e-21)
(0.0736776 -3.08101e-06 -1.47299e-20)
(0.074147 -2.30461e-06 0)
(0.0736601 -2.33883e-06 8.2876e-21)
(0.0736606 -2.37409e-06 0)
(0.0736612 -2.41043e-06 -2.61039e-23)
(0.0736617 -2.4479e-06 8.72709e-21)
(0.0736623 -2.48655e-06 1.44607e-21)
(0.0736699 -2.48655e-06 8.86489e-21)
(0.07414 -1.94218e-06 -2.49579e-23)
(0.0736529 -1.97102e-06 -7.31988e-24)
(0.0736534 -2.00073e-06 -2.57103e-23)
(0.0736538 -2.03136e-06 -7.54395e-24)
(0.0736543 -2.06293e-06 7.66122e-24)
(0.0736547 -2.09551e-06 -7.78219e-24)
(0.0736623 -2.09551e-06 -5.91112e-21)
(0.0741334 -1.79659e-06 1.52404e-20)
(0.0736461 -1.82367e-06 -4.49728e-24)
(0.0736465 -1.85158e-06 -1.57069e-20)
(0.0736468 -1.88036e-06 -7.22398e-21)
(0.0736472 -1.91005e-06 7.36497e-21)
(0.0736547 -1.91005e-06 -4.71031e-24)
(0.0741263 -1.81714e-06 -6.94011e-21)
(0.0736389 -1.84453e-06 0)
(0.0736391 -1.87276e-06 -8.58046e-21)
(0.0736394 -1.90188e-06 8.70558e-21)
(0.0736396 -1.9319e-06 1.62029e-20)
(0.0736472 -1.9319e-06 0)
(0.0741191 -2.03385e-06 -8.31711e-21)
(0.0736317 -2.06452e-06 0)
(0.0736318 -2.09611e-06 2.21767e-24)
(0.0736319 -2.1287e-06 1.44943e-20)
(0.073632 -2.16231e-06 1.76759e-20)
(0.0736396 -2.16231e-06 1.47299e-21)
(0.0741049 -1.34114e-12 0)
(0.0736245 -2.44746e-06 0)
(0.0736245 -2.48435e-06 0)
(0.0736245 -2.52238e-06 9.99923e-21)
(0.0736245 -2.56159e-06 -3.98026e-24)
(0.0736245 -2.60203e-06 0)
(0.073632 -2.60203e-06 -8.83796e-21)
)
;

boundaryField
{
    inlet
    {
        type            calculated;
        value           nonuniform List<vector> 0();
    }
    outlet2
    {
        type            calculated;
        value           uniform (0.0741049 0 0);
    }
    outlet1
    {
        type            calculated;
        value           uniform (0.0741049 0 0);
    }
    wall
    {
        type            calculated;
        value           uniform (0.0741049 0 0);
    }
    symmetryBottom
    {
        type            symmetry;
    }
    symmetryZ0
    {
        type            symmetry;
    }
    symmetryZ05
    {
        type            symmetry;
    }
    procBoundary0to1
    {
        type            processor;
        value           uniform (0.0741049 0 0);
    }
}


// ************************************************************************* //
