/*--------------------------------*- C++ -*----------------------------------*\
| =========                 |                                                 |
| \\      /  F ield         | OpenFOAM: The Open Source CFD Toolbox           |
|  \\    /   O peration     | Version:  2412                                  |
|   \\  /    A nd           | Website:  www.openfoam.com                      |
|    \\/     M anipulation  |                                                 |
\*---------------------------------------------------------------------------*/
FoamFile
{
    version     2.0;
    format      ascii;
    arch        "LSB;label=32;scalar=64";
    class       volScalarField;
    location    "1e-07";
    object      T;
}
// * * * * * * * * * * * * * * * * * * * * * * * * * * * * * * * * * * * * * //

dimensions      [0 0 0 0 0 0 0];

internalField   nonuniform List<scalar> 
84
(
200.061
200.063
200.063
200.064
200.065
200.066
200.067
200.067
200.001
200
200
200
200
200
200
200
200.001
200
200
200
200
200
200
200
200.001
200
200
200
200
200
200
200.001
200
200
200
200
200
200
200.013
200.013
200.013
200.013
200.014
200.014
200.014
200.056
200.057
200.058
200.059
200.059
200.06
200.06
200.096
200.098
200.099
200.101
200.102
200.104
200.104
200.252
200.257
200.261
200.265
200.269
200.269
199.898
199.895
199.894
199.892
199.89
199.89
199.976
199.975
199.975
199.975
199.974
199.974
200.001
199.99
199.99
199.99
199.99
199.99
199.99
)
;

boundaryField
{
    inlet
    {
        type            calculated;
        value           nonuniform List<scalar> 0();
    }
    outlet2
    {
        type            calculated;
        value           uniform 0;
    }
    outlet1
    {
        type            calculated;
        value           uniform 0;
    }
    wall
    {
        type            calculated;
        value           uniform 0;
    }
    symmetryBottom
    {
        type            symmetry;
    }
    symmetryZ0
    {
        type            symmetry;
    }
    symmetryZ05
    {
        type            symmetry;
    }
    procBoundary0to1
    {
        type            processor;
        value           uniform 0;
    }
}


// ************************************************************************* //
