/*--------------------------------*- C++ -*----------------------------------*\
| =========                 |                                                 |
| \\      /  F ield         | OpenFOAM: The Open Source CFD Toolbox           |
|  \\    /   O peration     | Version:  2412                                  |
|   \\  /    A nd           | Website:  www.openfoam.com                      |
|    \\/     M anipulation  |                                                 |
\*---------------------------------------------------------------------------*/
FoamFile
{
    version     2.0;
    format      ascii;
    arch        "LSB;label=32;scalar=64";
    class       volVectorField;
    location    "1e-07";
    object      U;
}
// * * * * * * * * * * * * * * * * * * * * * * * * * * * * * * * * * * * * * //

dimensions      [0 0 0 0 0 0 0];

internalField   nonuniform List<vector> 
84
(
(2636.37 0.106511 9.92273e-17)
(2636.27 0.108781 -9.77672e-17)
(2636.27 0.110397 -2.9403e-16)
(2636.26 0.112061 1.54755e-16)
(2636.26 0.113776 3.73876e-18)
(2636.26 0.115545 1.52494e-17)
(2636.26 0.117369 2.79204e-16)
(2636.27 0.117357 4.49617e-17)
(2636.4 -0.105554 9.73884e-17)
(2636.3 -0.107801 -9.76762e-17)
(2636.3 -0.109401 -3.45127e-16)
(2636.3 -0.111049 3.67886e-18)
(2636.3 -0.112747 -6.09206e-16)
(2636.3 -0.114497 5.56647e-17)
(2636.3 -0.116303 4.78061e-16)
(2636.3 -0.116292 1.07295e-16)
(2636.4 -0.105564 -5.29566e-16)
(2636.3 -0.107812 9.76854e-17)
(2636.3 -0.109411 1.9827e-16)
(2636.3 -0.111059 -1.83961e-18)
(2636.3 -0.112758 -1.86774e-18)
(2636.3 -0.114509 2.57487e-16)
(2636.3 -0.116315 -1.56159e-16)
(2636.3 -0.116303 -2.14612e-16)
(2636.4 -0.107118 -4.85282e-16)
(2636.3 -0.109422 2.47861e-16)
(2636.3 -0.11107 -1.83979e-18)
(2636.3 -0.112769 -5.12754e-16)
(2636.3 -0.114521 5.1882e-16)
(2636.3 -0.116327 1.60029e-16)
(2636.3 -0.116315 -1.60012e-16)
(2636.4 -0.107128 -2.91197e-16)
(2636.3 -0.109433 -1.00967e-16)
(2636.3 -0.111081 0)
(2636.3 -0.11278 0)
(2636.3 -0.114532 -1.53765e-16)
(2636.3 -0.116339 1.58118e-16)
(2636.3 -0.116327 3.68904e-16)
(2636.4 -0.101524 -1.94149e-16)
(2636.29 -0.103709 2.97491e-16)
(2636.29 -0.105271 0)
(2636.29 -0.106881 3.57691e-16)
(2636.29 -0.108542 -3.11355e-16)
(2636.29 -0.110255 2.63557e-16)
(2636.3 -0.110243 -5.2706e-16)
(2636.39 -0.0819433 0)
(2636.29 -0.0837067 2.96613e-16)
(2636.29 -0.084968 0)
(2636.29 -0.0862679 -9.34242e-19)
(2636.29 -0.0876082 3.12335e-16)
(2636.29 -0.0889908 5.1753e-17)
(2636.29 -0.0889816 3.17232e-16)
(2636.39 -0.0690632 -8.87493e-19)
(2636.29 -0.0705495 -2.62003e-19)
(2636.29 -0.0716127 -9.20255e-19)
(2636.29 -0.0727084 -2.70021e-19)
(2636.29 -0.0738381 2.74216e-19)
(2636.29 -0.0750035 -2.78544e-19)
(2636.29 -0.0749958 -2.11552e-16)
(2636.39 -0.0638916 5.41991e-16)
(2636.29 -0.0652813 -1.60988e-19)
(2636.29 -0.0662802 -5.62253e-16)
(2636.29 -0.0673102 -2.58592e-16)
(2636.29 -0.0683726 2.63638e-16)
(2636.29 -0.0683656 -1.68594e-19)
(2636.39 -0.0646287 -2.46833e-16)
(2636.29 -0.0660346 0)
(2636.29 -0.0670451 -3.07181e-16)
(2636.29 -0.0680871 3.11659e-16)
(2636.29 -0.0691619 5.80062e-16)
(2636.29 -0.0691548 0)
(2636.39 -0.0723434 -2.95837e-16)
(2636.29 -0.0739172 0)
(2636.29 -0.0750485 7.94007e-20)
(2636.29 -0.076215 5.18949e-16)
(2636.29 -0.0774182 6.3286e-16)
(2636.29 -0.0774103 5.27329e-17)
(2636.39 -4.77129e-08 0)
(2636.28 -0.0876366 0)
(2636.28 -0.0889577 0)
(2636.28 -0.0903193 3.58044e-16)
(2636.28 -0.0917233 -1.42522e-19)
(2636.28 -0.0931715 0)
(2636.29 -0.093162 -3.1643e-16)
)
;

boundaryField
{
    inlet
    {
        type            calculated;
        value           nonuniform List<vector> 0();
    }
    outlet2
    {
        type            calculated;
        value           uniform (0 0 0);
    }
    outlet1
    {
        type            calculated;
        value           uniform (0 0 0);
    }
    wall
    {
        type            calculated;
        value           uniform (0 0 0);
    }
    symmetryBottom
    {
        type            symmetry;
    }
    symmetryZ0
    {
        type            symmetry;
    }
    symmetryZ05
    {
        type            symmetry;
    }
    procBoundary0to1
    {
        type            processor;
        value           uniform (0 0 0);
    }
}


// ************************************************************************* //
