/*--------------------------------*- C++ -*----------------------------------*\
| =========                 |                                                 |
| \\      /  F ield         | OpenFOAM: The Open Source CFD Toolbox           |
|  \\    /   O peration     | Version:  2412                                  |
|   \\  /    A nd           | Website:  www.openfoam.com                      |
|    \\/     M anipulation  |                                                 |
\*---------------------------------------------------------------------------*/
FoamFile
{
    version     2.0;
    format      ascii;
    arch        "LSB;label=32;scalar=64";
    class       volVectorField;
    location    "8e-07";
    object      rhoU_dof0;
}
// * * * * * * * * * * * * * * * * * * * * * * * * * * * * * * * * * * * * * //

dimensions      [0 0 0 0 0 0 0];

internalField   nonuniform List<vector> 
84
(
(0.074105 -9.08575e-09 0)
(0.0649319 -8.24029e-08 0)
(0.0651877 -7.88697e-08 -2.81026e-20)
(0.0741054 -2.18168e-05 0)
(0.064934 -2.00108e-05 0)
(0.0651898 -2.0059e-05 -2.49802e-20)
(0.0741053 -2.18039e-05 0)
(0.0649339 -1.99997e-05 0)
(0.0651897 -2.00479e-05 4.37153e-20)
(0.0741053 -2.18039e-05 0)
(0.0649339 -1.99997e-05 0)
(0.0651897 -2.00479e-05 -5.77677e-20)
(0.0741053 -2.18039e-05 0)
(0.0649339 -1.99997e-05 0)
(0.0651897 -2.00479e-05 -9.836e-20)
(0.0741053 -2.18039e-05 0)
(0.0649339 -1.99997e-05 0)
(0.0651897 -2.00479e-05 5.46442e-20)
(0.0741053 -2.18039e-05 0)
(0.0649339 -1.99997e-05 0)
(0.0651897 -2.00479e-05 -6.86965e-20)
(0.0741053 -2.18039e-05 0)
(0.0649339 -1.99997e-05 0)
(0.0651897 -2.00479e-05 -8.11861e-20)
(0.0741053 -2.18039e-05 0)
(0.0649339 -1.99997e-05 0)
(0.0651897 -2.00479e-05 2.96638e-20)
(0.0741053 -2.18039e-05 0)
(0.0649339 -1.99997e-05 0)
(0.0651897 -2.00479e-05 -6.86971e-20)
(0.0741053 -2.18039e-05 0)
(0.0649339 -1.99997e-05 0)
(0.0651897 -2.00478e-05 -1.76424e-19)
(0.0741054 -2.18069e-05 0)
(0.0649332 -1.99285e-05 0)
(0.065189 -1.99802e-05 0)
(0.0704175 2.20664e-05 3.19058e-22)
(0.0703558 2.21136e-05 2.3298e-20)
(0.0704083 2.2127e-05 2.25457e-21)
(0.0709263 -2.19651e-05 2.83668e-22)
(0.0708657 -2.22594e-05 2.46107e-20)
(0.0709184 -2.22693e-05 -5.74549e-23)
(0.0708745 -2.1953e-05 -4.86441e-22)
(0.0708138 -2.2247e-05 -9.07622e-21)
(0.0708665 -2.22549e-05 -4.84655e-20)
(0.0708228 -2.19409e-05 6.52694e-22)
(0.0707619 -2.22346e-05 -3.77685e-22)
(0.0707683 -2.25523e-05 3.94761e-24)
(0.070345 1.48537e-07 3.4465e-20)
(0.0707711 -2.19285e-05 -1.41652e-20)
(0.0707101 -2.2222e-05 -2.01668e-22)
(0.0707157 -2.25393e-05 -3.75661e-22)
(0.0707687 -2.25494e-05 3.18923e-20)
(0.0707193 -2.07819e-05 -6.1319e-22)
(0.0706582 -2.1073e-05 -2.45686e-20)
(0.0706631 -2.13742e-05 -4.07829e-22)
(0.070716 -2.13839e-05 2.1246e-20)
(0.0706674 -1.67028e-05 6.27347e-22)
(0.0706061 -1.69838e-05 -1.81016e-23)
(0.0706103 -1.72261e-05 -1.85009e-22)
(0.0706632 -1.72341e-05 -1.91129e-22)
(0.0706157 -1.4033e-05 1.09423e-21)
(0.0705544 -1.43074e-05 -2.31187e-20)
(0.0705578 -1.45114e-05 2.54135e-20)
(0.0706107 -1.45168e-05 1.55731e-22)
(0.070564 -1.27322e-05 -3.17883e-22)
(0.0705026 -1.30028e-05 -3.47096e-20)
(0.0705052 -1.31877e-05 -3.62945e-20)
(0.0705075 -1.33785e-05 3.77284e-20)
(0.0703476 1.64558e-07 2.56647e-19)
(0.0705132 -1.28074e-05 8.7698e-22)
(0.0704517 -1.30773e-05 -3.87778e-20)
(0.0704536 -1.32622e-05 2.27561e-20)
(0.0704552 -1.34531e-05 6.0859e-20)
(0.0705087 -1.34684e-05 3.77804e-20)
(0.0704618 -1.43777e-05 2.15726e-21)
(0.0704001 -1.46511e-05 -1.01313e-23)
(0.0704013 -1.48588e-05 4.70531e-23)
(0.0704021 -1.50744e-05 8.79045e-24)
(0.0704569 -1.51818e-05 -3.36381e-20)
(0.0704104 -1.73146e-05 2.7094e-23)
(0.0703486 -1.75932e-05 3.48978e-20)
(0.070349 -1.78427e-05 -3.93879e-22)
(0.0704018 -1.78509e-05 -6.09961e-20)
)
;

boundaryField
{
    inlet
    {
        type            calculated;
        value           uniform (0.0741049 0 0);
    }
    outlet2
    {
        type            calculated;
        value           uniform (0.0741049 0 0);
    }
    outlet1
    {
        type            calculated;
        value           nonuniform List<vector> 0();
    }
    wall
    {
        type            calculated;
        value           uniform (0.0741049 0 0);
    }
    symmetryBottom
    {
        type            symmetry;
    }
    symmetryZ0
    {
        type            symmetry;
    }
    symmetryZ05
    {
        type            symmetry;
    }
    procBoundary1to0
    {
        type            processor;
        value           uniform (0.0741049 0 0);
    }
}


// ************************************************************************* //
