/*--------------------------------*- C++ -*----------------------------------*\
| =========                 |                                                 |
| \\      /  F ield         | OpenFOAM: The Open Source CFD Toolbox           |
|  \\    /   O peration     | Version:  2412                                  |
|   \\  /    A nd           | Website:  www.openfoam.com                      |
|    \\/     M anipulation  |                                                 |
\*---------------------------------------------------------------------------*/
FoamFile
{
    version     2.0;
    format      ascii;
    arch        "LSB;label=32;scalar=64";
    class       volScalarField;
    location    "2.8e-06";
    object      T;
}
// * * * * * * * * * * * * * * * * * * * * * * * * * * * * * * * * * * * * * //

dimensions      [0 0 0 0 0 0 0];

internalField   nonuniform List<scalar> 
84
(
201.7
201.734
201.767
201.793
201.821
201.849
201.879
201.877
199.994
199.991
200
199.999
199.999
199.999
199.999
199.999
199.989
199.992
200
199.999
199.999
199.999
199.999
199.999
199.995
199.991
200
199.999
199.999
199.999
199.999
199.996
199.992
200.001
200
200
200
200
200.297
200.307
200.319
200.323
200.327
200.331
200.331
201.528
201.576
201.605
201.629
201.654
201.68
201.679
202.65
202.784
202.814
202.858
202.902
202.949
202.946
207.059
207.617
207.723
207.849
207.98
207.971
197.043
196.964
196.929
196.879
196.828
196.831
199.268
199.273
199.27
199.257
199.245
199.246
199.959
199.687
199.699
199.694
199.689
199.684
199.684
)
;

boundaryField
{
    inlet
    {
        type            calculated;
        value           nonuniform List<scalar> 0();
    }
    outlet2
    {
        type            calculated;
        value           uniform 0;
    }
    outlet1
    {
        type            calculated;
        value           uniform 0;
    }
    wall
    {
        type            calculated;
        value           uniform 0;
    }
    symmetryBottom
    {
        type            symmetry;
    }
    symmetryZ0
    {
        type            symmetry;
    }
    symmetryZ05
    {
        type            symmetry;
    }
    procBoundary0to1
    {
        type            processor;
        value           uniform 0;
    }
}


// ************************************************************************* //
