/*--------------------------------*- C++ -*----------------------------------*\
| =========                 |                                                 |
| \\      /  F ield         | OpenFOAM: The Open Source CFD Toolbox           |
|  \\    /   O peration     | Version:  2412                                  |
|   \\  /    A nd           | Website:  www.openfoam.com                      |
|    \\/     M anipulation  |                                                 |
\*---------------------------------------------------------------------------*/
FoamFile
{
    version     2.0;
    format      ascii;
    arch        "LSB;label=32;scalar=64";
    class       volScalarField;
    location    "7.9e-06";
    object      rho_dof0;
}
// * * * * * * * * * * * * * * * * * * * * * * * * * * * * * * * * * * * * * //

dimensions      [0 0 0 0 0 0 0];

internalField   nonuniform List<scalar> 
84
(
2.81119e-05
1.95086e-06
9.25214e-06
2.81255e-05
1.95797e-06
9.26031e-06
2.81221e-05
1.95716e-06
9.25865e-06
2.81221e-05
1.95716e-06
9.25865e-06
2.81221e-05
1.95716e-06
9.25865e-06
2.81221e-05
1.95716e-06
9.25865e-06
2.81221e-05
1.95716e-06
9.25865e-06
2.81221e-05
1.95716e-06
9.25865e-06
2.81221e-05
1.95716e-06
9.25865e-06
2.81221e-05
1.95716e-06
9.25865e-06
2.81221e-05
1.95714e-06
9.25864e-06
2.81222e-05
1.95525e-06
9.25796e-06
1.82742e-05
1.68172e-05
1.70924e-05
1.96611e-05
1.80021e-05
1.83056e-05
1.95118e-05
1.78744e-05
1.81729e-05
1.93634e-05
1.77476e-05
1.79161e-05
1.67674e-05
1.92158e-05
1.76215e-05
1.77858e-05
1.79212e-05
1.90682e-05
1.74954e-05
1.76556e-05
1.77904e-05
1.89209e-05
1.73698e-05
1.75258e-05
1.76599e-05
1.87773e-05
1.72472e-05
1.73992e-05
1.75315e-05
1.86236e-05
1.71162e-05
1.72639e-05
1.726e-05
1.6853e-05
1.84986e-05
1.70087e-05
1.71532e-05
1.71478e-05
1.72878e-05
1.83502e-05
1.6882e-05
1.70222e-05
1.70157e-05
1.72088e-05
1.82129e-05
1.67643e-05
1.69009e-05
1.70313e-05
)
;

boundaryField
{
    inlet
    {
        type            calculated;
        value           uniform 2.81085e-05;
    }
    outlet2
    {
        type            calculated;
        value           uniform 2.81085e-05;
    }
    outlet1
    {
        type            calculated;
        value           nonuniform List<scalar> 0();
    }
    wall
    {
        type            calculated;
        value           uniform 2.81085e-05;
    }
    symmetryBottom
    {
        type            symmetry;
    }
    symmetryZ0
    {
        type            symmetry;
    }
    symmetryZ05
    {
        type            symmetry;
    }
    procBoundary1to0
    {
        type            processor;
        value           uniform 2.81085e-05;
    }
}


// ************************************************************************* //
