/*--------------------------------*- C++ -*----------------------------------*\
| =========                 |                                                 |
| \\      /  F ield         | OpenFOAM: The Open Source CFD Toolbox           |
|  \\    /   O peration     | Version:  2412                                  |
|   \\  /    A nd           | Website:  www.openfoam.com                      |
|    \\/     M anipulation  |                                                 |
\*---------------------------------------------------------------------------*/
FoamFile
{
    version     2.0;
    format      ascii;
    arch        "LSB;label=32;scalar=64";
    class       volVectorField;
    location    "7.9e-06";
    object      rhoU;
}
// * * * * * * * * * * * * * * * * * * * * * * * * * * * * * * * * * * * * * //

dimensions      [0 0 0 0 0 0 0];

internalField   nonuniform List<vector> 
84
(
(0.074114 -8.98834e-07 0)
(0.00484339 -6.83956e-07 0)
(0.0242778 -6.19198e-07 -1.10096e-19)
(0.0741498 -0.000162791 0)
(0.00486183 -2.67698e-05 0)
(0.0242993 -7.1082e-05 -1.10863e-19)
(0.0741408 -0.000161936 0)
(0.00485976 -2.65904e-05 0)
(0.0242949 -7.06748e-05 1.49096e-19)
(0.0741408 -0.000161936 0)
(0.00485976 -2.65903e-05 0)
(0.0242949 -7.06747e-05 -2.12566e-19)
(0.0741408 -0.000161936 0)
(0.00485976 -2.65903e-05 0)
(0.0242949 -7.06747e-05 -3.24825e-19)
(0.0741408 -0.000161936 0)
(0.00485976 -2.65903e-05 0)
(0.0242949 -7.06747e-05 2.08435e-19)
(0.0741408 -0.000161936 0)
(0.00485976 -2.65903e-05 0)
(0.0242949 -7.06747e-05 -2.44567e-19)
(0.0741408 -0.000161936 0)
(0.00485976 -2.65903e-05 0)
(0.0242949 -7.06747e-05 -2.77215e-19)
(0.0741408 -0.000161936 0)
(0.00485976 -2.65903e-05 0)
(0.0242949 -7.06747e-05 1.11593e-19)
(0.0741408 -0.000161936 0)
(0.00485976 -2.65903e-05 0)
(0.0242949 -7.06747e-05 -2.47048e-19)
(0.0741408 -0.000161937 0)
(0.0048597 -2.65845e-05 0)
(0.0242949 -7.06725e-05 -6.4277e-19)
(0.074141 -0.000161955 0)
(0.0048548 -2.61059e-05 0)
(0.0242931 -7.04982e-05 0)
(0.0480386 0.00015245 2.0454e-20)
(0.0441694 0.000130129 1.63526e-19)
(0.0449014 0.000133236 1.76625e-20)
(0.0517399 -0.000158322 1.98113e-20)
(0.0473287 -0.000147269 1.82768e-19)
(0.0481367 -0.000149366 -6.23255e-21)
(0.0513446 -0.000157196 -2.74747e-20)
(0.046991 -0.000146247 -8.63841e-20)
(0.0477857 -0.000148095 -2.5997e-19)
(0.0509518 -0.000156035 3.62229e-20)
(0.0466558 -0.000145236 -6.19895e-21)
(0.0471061 -0.000148632 5.55527e-22)
(0.0440658 1.4706e-05 2.10471e-19)
(0.0505609 -0.000154945 -3.36536e-20)
(0.0463222 -0.000144284 1.45527e-21)
(0.0467615 -0.000147636 -2.74704e-21)
(0.0471195 -0.000148452 2.11044e-19)
(0.0501693 -0.000148642 -3.56082e-20)
(0.0459881 -0.000138968 -1.716e-19)
(0.0464164 -0.000142181 1.79151e-20)
(0.0467726 -0.000142971 1.9498e-19)
(0.0497762 -0.000116388 4.14799e-20)
(0.0456525 -0.000111305 -5.63728e-21)
(0.0460697 -0.000113606 7.12441e-22)
(0.0464242 -0.000114254 -1.55615e-21)
(0.0493945 -9.71903e-05 4.97988e-20)
(0.0453263 -9.47618e-05 -1.7764e-19)
(0.0457331 -9.65587e-05 1.98476e-19)
(0.0460828 -9.695e-05 3.41286e-21)
(0.0489851 -8.37518e-05 -1.9929e-20)
(0.0449751 -8.31967e-05 -2.18013e-19)
(0.0453706 -8.45715e-05 -2.00231e-19)
(0.0453598 -8.58152e-05 2.46112e-19)
(0.0442903 1.54285e-05 1.41845e-18)
(0.0486608 -8.00801e-05 4.32742e-20)
(0.0447025 -8.00585e-05 -2.17623e-19)
(0.0450884 -8.126e-05 1.93812e-19)
(0.0450739 -8.24006e-05 3.01514e-19)
(0.0454445 -8.37942e-05 2.16458e-19)
(0.048268 -9.2601e-05 1.09914e-19)
(0.0443662 -9.06705e-05 -1.01157e-20)
(0.0447413 -9.22435e-05 9.64505e-22)
(0.0447237 -9.37052e-05 -7.02515e-22)
(0.0452344 -0.000104509 -2.16629e-19)
(0.0479054 -0.000112569 1.87541e-22)
(0.0440556 -0.000107613 2.14442e-19)
(0.044421 -0.000109725 -3.20248e-20)
(0.0447658 -0.000110283 -3.07102e-19)
)
;

boundaryField
{
    inlet
    {
        type            calculated;
        value           uniform (0 0 0);
    }
    outlet2
    {
        type            calculated;
        value           uniform (0 0 0);
    }
    outlet1
    {
        type            calculated;
        value           nonuniform List<vector> 0();
    }
    wall
    {
        type            calculated;
        value           uniform (0 0 0);
    }
    symmetryBottom
    {
        type            symmetry;
    }
    symmetryZ0
    {
        type            symmetry;
    }
    symmetryZ05
    {
        type            symmetry;
    }
    procBoundary1to0
    {
        type            processor;
        value           uniform (0 0 0);
    }
}


// ************************************************************************* //
