/*--------------------------------*- C++ -*----------------------------------*\
| =========                 |                                                 |
| \\      /  F ield         | OpenFOAM: The Open Source CFD Toolbox           |
|  \\    /   O peration     | Version:  2412                                  |
|   \\  /    A nd           | Website:  www.openfoam.com                      |
|    \\/     M anipulation  |                                                 |
\*---------------------------------------------------------------------------*/
FoamFile
{
    version     2.0;
    format      ascii;
    arch        "LSB;label=32;scalar=64";
    class       volVectorField;
    location    "7.9e-06";
    object      U;
}
// * * * * * * * * * * * * * * * * * * * * * * * * * * * * * * * * * * * * * //

dimensions      [0 0 0 0 0 0 0];

internalField   nonuniform List<vector> 
84
(
(2636.39 -0.0319734 0)
(2482.7 -0.350592 0)
(2624.02 -0.0669249 -1.18995e-14)
(2636.39 -5.78802 0)
(2483.1 -13.6722 0)
(2624.02 -7.67598 -1.19718e-14)
(2636.39 -5.75833 0)
(2483.07 -13.5862 0)
(2624.02 -7.63338 1.61034e-14)
(2636.39 -5.75833 0)
(2483.07 -13.5862 0)
(2624.02 -7.63337 -2.29587e-14)
(2636.39 -5.75833 0)
(2483.07 -13.5862 0)
(2624.02 -7.63337 -3.50834e-14)
(2636.39 -5.75833 0)
(2483.07 -13.5862 0)
(2624.02 -7.63337 2.25124e-14)
(2636.39 -5.75833 0)
(2483.07 -13.5862 0)
(2624.02 -7.63337 -2.6415e-14)
(2636.39 -5.75833 0)
(2483.07 -13.5862 0)
(2624.02 -7.63337 -2.99412e-14)
(2636.39 -5.75833 0)
(2483.07 -13.5862 0)
(2624.02 -7.63337 1.20528e-14)
(2636.39 -5.75833 0)
(2483.07 -13.5861 0)
(2624.02 -7.63337 -2.66829e-14)
(2636.39 -5.75833 0)
(2483.07 -13.5833 0)
(2624.02 -7.63314 -6.94238e-14)
(2636.39 -5.75899 0)
(2482.95 -13.3517 0)
(2624.02 -7.61487 0)
(2628.76 8.34237 1.11928e-15)
(2626.44 7.73788 9.72375e-15)
(2626.97 7.79501 1.03335e-15)
(2631.59 -8.05256 1.00764e-15)
(2629.07 -8.18064 1.01526e-14)
(2629.62 -8.15961 -3.40473e-16)
(2631.47 -8.05644 -1.4081e-15)
(2628.96 -8.18191 -4.83284e-15)
(2629.5 -8.1492 -1.43054e-14)
(2631.34 -8.05822 1.87069e-15)
(2628.85 -8.1834 -3.49283e-16)
(2629.26 -8.29603 3.10072e-17)
(2628.06 0.877056 1.25524e-14)
(2631.21 -8.06339 -1.75135e-15)
(2628.73 -8.18794 8.25852e-17)
(2629.15 -8.30078 -1.54451e-16)
(2629.26 -8.28355 1.17762e-14)
(2631.05 -7.79527 -1.86742e-15)
(2628.58 -7.94312 -9.80831e-15)
(2628.99 -8.05305 1.0147e-15)
(2629.1 -8.03644 1.09598e-14)
(2630.75 -6.15131 2.19228e-15)
(2628.27 -6.40797 -3.24545e-16)
(2628.68 -6.48219 4.06509e-17)
(2628.79 -6.46969 -8.81178e-17)
(2630.54 -5.17594 2.65208e-15)
(2628.04 -5.49434 -1.02996e-14)
(2628.45 -5.54959 1.14071e-14)
(2628.56 -5.53003 1.94669e-16)
(2630.27 -4.49708 -1.0701e-15)
(2627.64 -4.86071 -1.27372e-14)
(2628.07 -4.89876 -1.15983e-14)
(2628.03 -4.97191 1.42591e-14)
(2628.03 0.915476 8.41661e-14)
(2630.51 -4.32897 2.33932e-15)
(2628.2 -4.7069 -1.27947e-14)
(2628.58 -4.73732 1.12989e-14)
(2628.55 -4.8053 1.75832e-14)
(2628.7 -4.84701 1.25208e-14)
(2630.38 -5.04633 5.98979e-15)
(2628.03 -5.37085 -5.99204e-16)
(2628.4 -5.419 5.66615e-17)
(2628.37 -5.50697 -4.12862e-17)
(2628.56 -6.07299 -1.25883e-14)
(2630.3 -6.18074 1.02971e-17)
(2627.94 -6.41918 1.27916e-14)
(2628.32 -6.49225 -1.89486e-15)
(2628.44 -6.47529 -1.80316e-14)
)
;

boundaryField
{
    inlet
    {
        type            calculated;
        value           uniform (0 0 0);
    }
    outlet2
    {
        type            calculated;
        value           uniform (0 0 0);
    }
    outlet1
    {
        type            calculated;
        value           nonuniform List<vector> 0();
    }
    wall
    {
        type            calculated;
        value           uniform (0 0 0);
    }
    symmetryBottom
    {
        type            symmetry;
    }
    symmetryZ0
    {
        type            symmetry;
    }
    symmetryZ05
    {
        type            symmetry;
    }
    procBoundary1to0
    {
        type            processor;
        value           uniform (0 0 0);
    }
}


// ************************************************************************* //
