/*--------------------------------*- C++ -*----------------------------------*\
| =========                 |                                                 |
| \\      /  F ield         | OpenFOAM: The Open Source CFD Toolbox           |
|  \\    /   O peration     | Version:  2412                                  |
|   \\  /    A nd           | Website:  www.openfoam.com                      |
|    \\/     M anipulation  |                                                 |
\*---------------------------------------------------------------------------*/
FoamFile
{
    version     2.0;
    format      ascii;
    arch        "LSB;label=32;scalar=64";
    class       volScalarField;
    location    "9.7e-06";
    object      rho;
}
// * * * * * * * * * * * * * * * * * * * * * * * * * * * * * * * * * * * * * //

dimensions      [0 0 0 0 0 0 0];

internalField   nonuniform List<scalar> 
84
(
2.889e-05
1.42511e-05
1.53772e-05
1.53243e-05
1.53316e-05
1.53376e-05
1.53277e-05
1.55245e-05
3.1007e-05
1.53202e-05
1.65443e-05
1.65055e-05
1.65318e-05
1.65572e-05
1.65682e-05
1.67765e-05
3.05693e-05
1.53585e-05
1.63972e-05
1.63736e-05
1.63971e-05
1.64206e-05
1.64296e-05
1.66365e-05
3.02137e-05
1.50998e-05
1.62786e-05
1.62382e-05
1.62614e-05
1.62674e-05
1.64729e-05
3.02505e-05
1.49354e-05
1.61264e-05
1.60827e-05
1.61033e-05
1.61066e-05
1.63106e-05
2.99795e-05
1.47961e-05
1.59743e-05
1.59287e-05
1.59468e-05
1.59473e-05
1.61499e-05
2.97062e-05
1.4659e-05
1.58236e-05
1.57762e-05
1.57918e-05
1.57896e-05
1.59907e-05
2.93476e-05
1.45938e-05
1.56674e-05
1.56256e-05
1.56383e-05
1.56334e-05
1.58331e-05
2.90433e-05
1.44036e-05
1.55336e-05
1.5484e-05
1.54788e-05
1.5677e-05
2.89148e-05
1.42568e-05
1.53854e-05
1.53334e-05
1.53257e-05
1.55224e-05
2.86299e-05
1.41238e-05
1.52379e-05
1.51843e-05
1.51741e-05
1.53694e-05
2.80964e-05
1.40292e-05
1.50884e-05
1.50354e-05
1.50389e-05
1.5024e-05
1.5218e-05
)
;

boundaryField
{
    inlet
    {
        type            calculated;
        value           nonuniform List<scalar> 0();
    }
    outlet2
    {
        type            calculated;
        value           uniform 0;
    }
    outlet1
    {
        type            calculated;
        value           uniform 0;
    }
    wall
    {
        type            calculated;
        value           uniform 0;
    }
    symmetryBottom
    {
        type            symmetry;
    }
    symmetryZ0
    {
        type            symmetry;
    }
    symmetryZ05
    {
        type            symmetry;
    }
    procBoundary0to1
    {
        type            processor;
        value           uniform 0;
    }
}


// ************************************************************************* //
