/*--------------------------------*- C++ -*----------------------------------*\
| =========                 |                                                 |
| \\      /  F ield         | OpenFOAM: The Open Source CFD Toolbox           |
|  \\    /   O peration     | Version:  2412                                  |
|   \\  /    A nd           | Website:  www.openfoam.com                      |
|    \\/     M anipulation  |                                                 |
\*---------------------------------------------------------------------------*/
FoamFile
{
    version     2.0;
    format      ascii;
    arch        "LSB;label=32;scalar=64";
    class       volVectorField;
    location    "9.7e-06";
    object      rhoU_dof0;
}
// * * * * * * * * * * * * * * * * * * * * * * * * * * * * * * * * * * * * * //

dimensions      [0 0 0 0 0 0 0];

internalField   nonuniform List<vector> 
84
(
(0.0761655 -5.6002e-06 3.41157e-19)
(0.0373869 -3.24458e-06 -1.81328e-19)
(0.0403868 -3.49864e-06 -5.09351e-19)
(0.0402447 -3.59713e-06 2.56427e-19)
(0.0402641 -3.70691e-06 -2.77746e-20)
(0.0402799 -3.82124e-06 -1.92121e-20)
(0.0402533 -3.95087e-06 4.57399e-19)
(0.040774 -3.96774e-06 3.9594e-20)
(0.0817932 -0.000310649 3.34157e-19)
(0.0402172 -0.000158337 -1.7526e-19)
(0.0434794 -0.000172581 -6.36295e-19)
(0.0433747 -0.00017479 1.49868e-19)
(0.0434444 -0.000177691 -1.1147e-18)
(0.0435115 -0.000180658 1.40811e-19)
(0.0435403 -0.000183866 8.91532e-19)
(0.0440919 -0.000185536 1.59418e-19)
(0.0806298 -0.000286852 -1.50815e-18)
(0.0403225 -0.000180757 1.72237e-19)
(0.0430902 -0.000172542 3.06794e-19)
(0.0430263 -0.000176939 -2.41236e-20)
(0.0430885 -0.000179786 -6.49104e-20)
(0.0431506 -0.000182826 4.86436e-19)
(0.043174 -0.00018611 -3.28562e-19)
(0.043722 -0.000187793 -3.98289e-19)
(0.0796847 -0.000275463 -1.49418e-18)
(0.0396362 -0.000164098 5.21266e-19)
(0.0427772 -0.000175693 3.77525e-20)
(0.0426681 -0.00017813 -1.04642e-18)
(0.0427297 -0.000181131 9.49872e-19)
(0.0427453 -0.000184355 1.62193e-19)
(0.0432894 -0.000186028 -3.1251e-19)
(0.079786 -0.000313117 -7.94401e-19)
(0.0392012 -0.000159545 -1.43316e-19)
(0.0423748 -0.000174218 1.26299e-20)
(0.0422571 -0.000176445 2.08569e-20)
(0.0423119 -0.000179398 -3.31705e-19)
(0.0423201 -0.000182561 2.04262e-19)
(0.0428602 -0.000184224 5.96543e-19)
(0.0790672 -0.000311078 -5.21262e-19)
(0.0388332 -0.000158026 5.51773e-19)
(0.0419729 -0.000172604 -9.78498e-20)
(0.0418501 -0.000174782 6.90372e-19)
(0.0418981 -0.000177681 -6.36261e-19)
(0.041899 -0.000180783 5.67046e-19)
(0.0424353 -0.000182436 -9.65039e-19)
(0.0783421 -0.000308123 -4.92892e-20)
(0.0384711 -0.000156716 5.12737e-19)
(0.0415745 -0.000170986 -4.09005e-20)
(0.041447 -0.000173135 -3.71336e-20)
(0.0414883 -0.00017598 5.37911e-19)
(0.0414822 -0.000179023 2.86017e-20)
(0.0420145 -0.000180665 4.98222e-19)
(0.0773897 -0.000281715 7.50219e-21)
(0.0383007 -0.000175061 8.83837e-21)
(0.0411613 -0.000167453 -1.86778e-21)
(0.0410488 -0.000171614 -7.07786e-21)
(0.0410825 -0.000174291 1.90849e-21)
(0.0410694 -0.00017728 3.41173e-20)
(0.0415979 -0.000178912 -4.03095e-19)
(0.0765817 -0.000267816 1.79459e-18)
(0.0377973 -0.000159111 -4.37127e-20)
(0.0408078 -0.000170337 -1.01407e-18)
(0.0406746 -0.00017261 -3.70644e-19)
(0.0406609 -0.000175554 5.7791e-19)
(0.0411853 -0.000177175 -3.71663e-20)
(0.0762428 -0.000304294 -6.16427e-19)
(0.0374092 -0.00015468 8.81701e-20)
(0.0404161 -0.000168881 -5.69899e-19)
(0.0402766 -0.000170951 5.01589e-19)
(0.0402562 -0.000173844 9.25972e-19)
(0.0407769 -0.000175455 -8.79395e-20)
(0.0754868 -0.000282794 -8.26368e-19)
(0.0370582 -0.000155102 6.18232e-20)
(0.0400265 -0.000167183 -7.5511e-20)
(0.0398826 -0.000169318 8.64099e-19)
(0.0398555 -0.00017215 9.86013e-19)
(0.0403724 -0.000173752 1.61447e-20)
(0.0740728 -1.76871e-05 -4.38105e-20)
(0.0368094 -0.000188082 3.75864e-21)
(0.0396313 -0.000160225 -4.92347e-20)
(0.0394891 -0.000165204 6.18538e-19)
(0.0394985 -0.000167643 -5.20667e-20)
(0.0394588 -0.000170408 4.51234e-20)
(0.0399722 -0.000172005 -5.01164e-19)
)
;

boundaryField
{
    inlet
    {
        type            calculated;
        value           nonuniform List<vector> 0();
    }
    outlet2
    {
        type            calculated;
        value           uniform (0.0741049 0 0);
    }
    outlet1
    {
        type            calculated;
        value           uniform (0.0741049 0 0);
    }
    wall
    {
        type            calculated;
        value           uniform (0.0741049 0 0);
    }
    symmetryBottom
    {
        type            symmetry;
    }
    symmetryZ0
    {
        type            symmetry;
    }
    symmetryZ05
    {
        type            symmetry;
    }
    procBoundary0to1
    {
        type            processor;
        value           uniform (0.0741049 0 0);
    }
}


// ************************************************************************* //
