/*--------------------------------*- C++ -*----------------------------------*\
| =========                 |                                                 |
| \\      /  F ield         | OpenFOAM: The Open Source CFD Toolbox           |
|  \\    /   O peration     | Version:  2412                                  |
|   \\  /    A nd           | Website:  www.openfoam.com                      |
|    \\/     M anipulation  |                                                 |
\*---------------------------------------------------------------------------*/
FoamFile
{
    version     2.0;
    format      ascii;
    arch        "LSB;label=32;scalar=64";
    class       volVectorField;
    location    "9.7e-06";
    object      U;
}
// * * * * * * * * * * * * * * * * * * * * * * * * * * * * * * * * * * * * * //

dimensions      [0 0 0 0 0 0 0];

internalField   nonuniform List<vector> 
84
(
(2636.39 -0.193846 1.18088e-14)
(2623.44 -0.227672 -1.27238e-14)
(2626.41 -0.227521 -3.31238e-14)
(2626.21 -0.234734 1.67334e-14)
(2626.22 -0.241782 -1.81159e-15)
(2626.22 -0.249142 -1.25261e-15)
(2626.18 -0.257759 2.98413e-14)
(2626.43 -0.25558 2.55042e-15)
(2637.89 -10.0187 1.07768e-14)
(2625.11 -10.3352 -1.14398e-14)
(2628.07 -10.4315 -3.84602e-14)
(2627.89 -10.5898 9.07988e-15)
(2627.92 -10.7484 -6.74277e-14)
(2627.95 -10.9111 8.50453e-15)
(2627.94 -11.0975 5.38098e-14)
(2628.19 -11.0592 9.50243e-15)
(2637.6 -9.38366 -4.93353e-14)
(2625.42 -11.7692 1.12145e-14)
(2627.9 -10.5227 1.87102e-14)
(2627.78 -10.8063 -1.47332e-15)
(2627.81 -10.9645 -3.95864e-15)
(2627.83 -11.1339 2.96234e-14)
(2627.82 -11.3277 -1.99982e-14)
(2628.07 -11.288 -2.39406e-14)
(2637.37 -9.11714 -4.94537e-14)
(2624.95 -10.8675 3.45214e-14)
(2627.82 -10.7929 2.31915e-15)
(2627.64 -10.9698 -6.44421e-14)
(2627.68 -11.1387 5.84127e-14)
(2627.66 -11.3328 9.9704e-15)
(2627.91 -11.293 -1.89711e-14)
(2637.51 -10.3508 -2.62608e-14)
(2624.71 -10.6823 -9.59568e-15)
(2627.67 -10.8033 7.83181e-16)
(2627.49 -10.9711 1.29686e-15)
(2627.52 -11.1404 -2.05985e-14)
(2627.5 -11.3346 1.26819e-14)
(2627.75 -11.2947 3.65739e-14)
(2637.37 -10.3763 -1.73873e-14)
(2624.56 -10.6802 3.72918e-14)
(2627.52 -10.8051 -6.12544e-15)
(2627.34 -10.9728 4.33414e-14)
(2627.36 -11.1421 -3.98989e-14)
(2627.34 -11.3363 3.55575e-14)
(2627.59 -11.2964 -5.97553e-14)
(2637.23 -10.3723 -1.65922e-15)
(2624.41 -10.6908 3.49778e-14)
(2627.37 -10.8057 -2.58477e-15)
(2627.18 -10.9745 -2.35377e-15)
(2627.21 -11.1438 3.40627e-14)
(2627.18 -11.338 1.81142e-15)
(2627.44 -11.2982 3.1157e-14)
(2637.01 -9.59926 2.55633e-16)
(2624.46 -11.9956 6.05626e-16)
(2627.19 -10.688 -1.19215e-16)
(2627.03 -10.9829 -4.52967e-16)
(2627.05 -11.1452 1.2204e-16)
(2627.02 -11.3398 2.18233e-15)
(2627.28 -11.2999 -2.54591e-14)
(2636.82 -9.22127 6.17904e-14)
(2624.15 -11.0466 -3.03485e-15)
(2627.07 -10.9657 -6.52826e-14)
(2626.88 -11.1476 -2.39373e-14)
(2626.87 -11.3415 3.73354e-14)
(2627.12 -11.3016 -2.37076e-15)
(2636.8 -10.5238 -2.13187e-14)
(2623.96 -10.8496 6.18443e-15)
(2626.92 -10.9767 -3.70416e-14)
(2626.73 -11.1489 3.27122e-14)
(2626.71 -11.3433 6.04195e-14)
(2626.96 -11.3033 -5.66531e-15)
(2636.64 -9.87758 -2.88638e-14)
(2623.81 -10.9816 4.37724e-15)
(2626.77 -10.9715 -4.95546e-15)
(2626.57 -11.1509 5.69075e-14)
(2626.55 -11.345 6.498e-14)
(2626.8 -11.3051 1.05045e-15)
(2636.38 -0.629516 -1.5593e-15)
(2623.77 -13.4065 2.67915e-16)
(2626.6 -10.619 -3.26307e-15)
(2626.41 -10.9877 4.11388e-14)
(2626.43 -11.1473 -3.46213e-15)
(2626.39 -11.3424 3.00342e-15)
(2626.65 -11.3028 -3.29324e-14)
)
;

boundaryField
{
    inlet
    {
        type            calculated;
        value           nonuniform List<vector> 0();
    }
    outlet2
    {
        type            calculated;
        value           uniform (0 0 0);
    }
    outlet1
    {
        type            calculated;
        value           uniform (0 0 0);
    }
    wall
    {
        type            calculated;
        value           uniform (0 0 0);
    }
    symmetryBottom
    {
        type            symmetry;
    }
    symmetryZ0
    {
        type            symmetry;
    }
    symmetryZ05
    {
        type            symmetry;
    }
    procBoundary0to1
    {
        type            processor;
        value           uniform (0 0 0);
    }
}


// ************************************************************************* //
