/*--------------------------------*- C++ -*----------------------------------*\
| =========                 |                                                 |
| \\      /  F ield         | OpenFOAM: The Open Source CFD Toolbox           |
|  \\    /   O peration     | Version:  2412                                  |
|   \\  /    A nd           | Website:  www.openfoam.com                      |
|    \\/     M anipulation  |                                                 |
\*---------------------------------------------------------------------------*/
FoamFile
{
    version     2.0;
    format      ascii;
    arch        "LSB;label=32;scalar=64";
    class       volScalarField;
    location    "2.7e-06";
    object      T;
}
// * * * * * * * * * * * * * * * * * * * * * * * * * * * * * * * * * * * * * //

dimensions      [0 0 0 0 0 0 0];

internalField   nonuniform List<scalar> 
84
(
201.639
201.672
201.704
201.729
201.756
201.783
201.811
201.81
199.995
199.992
200
199.999
199.999
199.999
199.999
199.999
199.989
199.992
200
199.999
199.999
199.999
199.999
199.999
199.995
199.992
200
199.999
199.999
199.999
199.999
199.996
199.993
200.001
200
200
200
200
200.288
200.298
200.309
200.313
200.317
200.321
200.321
201.474
201.52
201.548
201.571
201.595
201.621
201.619
202.555
202.683
202.712
202.754
202.797
202.842
202.839
206.804
207.328
207.431
207.552
207.677
207.67
197.151
197.076
197.041
196.993
196.944
196.947
199.296
199.3
199.296
199.285
199.273
199.274
199.962
199.7
199.71
199.705
199.7
199.695
199.696
)
;

boundaryField
{
    inlet
    {
        type            calculated;
        value           nonuniform List<scalar> 0();
    }
    outlet2
    {
        type            calculated;
        value           uniform 0;
    }
    outlet1
    {
        type            calculated;
        value           uniform 0;
    }
    wall
    {
        type            calculated;
        value           uniform 0;
    }
    symmetryBottom
    {
        type            symmetry;
    }
    symmetryZ0
    {
        type            symmetry;
    }
    symmetryZ05
    {
        type            symmetry;
    }
    procBoundary0to1
    {
        type            processor;
        value           uniform 0;
    }
}


// ************************************************************************* //
