/*--------------------------------*- C++ -*----------------------------------*\
| =========                 |                                                 |
| \\      /  F ield         | OpenFOAM: The Open Source CFD Toolbox           |
|  \\    /   O peration     | Version:  2412                                  |
|   \\  /    A nd           | Website:  www.openfoam.com                      |
|    \\/     M anipulation  |                                                 |
\*---------------------------------------------------------------------------*/
FoamFile
{
    version     2.0;
    format      ascii;
    arch        "LSB;label=32;scalar=64";
    class       volVectorField;
    location    "5.2e-06";
    object      rhoU_dof0;
}
// * * * * * * * * * * * * * * * * * * * * * * * * * * * * * * * * * * * * * //

dimensions      [0 0 0 0 0 0 0];

internalField   nonuniform List<vector> 
84
(
(0.0741093 -4.38173e-07 0)
(0.0237804 -5.95881e-07 0)
(0.0333874 -4.91768e-07 -1.19448e-19)
(0.0741271 -0.000118777 0)
(0.0237978 -5.13927e-05 0)
(0.0334033 -6.59042e-05 -1.1554e-19)
(0.0741226 -0.000118345 0)
(0.0237956 -5.11876e-05 0)
(0.0334006 -6.5649e-05 1.56128e-19)
(0.0741226 -0.000118345 0)
(0.0237956 -5.11876e-05 0)
(0.0334006 -6.5649e-05 -2.05407e-19)
(0.0741226 -0.000118345 0)
(0.0237956 -5.11876e-05 0)
(0.0334006 -6.5649e-05 -3.13856e-19)
(0.0741226 -0.000118345 0)
(0.0237956 -5.11876e-05 0)
(0.0334006 -6.5649e-05 1.99845e-19)
(0.0741226 -0.000118345 0)
(0.0237956 -5.11876e-05 0)
(0.0334006 -6.5649e-05 -2.25704e-19)
(0.0741226 -0.000118345 0)
(0.0237956 -5.11876e-05 0)
(0.0334006 -6.5649e-05 -2.60776e-19)
(0.0741226 -0.000118345 0)
(0.0237956 -5.11876e-05 0)
(0.0334006 -6.5649e-05 1.17861e-19)
(0.0741226 -0.000118345 0)
(0.0237956 -5.11876e-05 0)
(0.0334006 -6.56489e-05 -2.26539e-19)
(0.0741226 -0.000118345 0)
(0.0237956 -5.11847e-05 0)
(0.0334006 -6.56472e-05 -6.05907e-19)
(0.0741227 -0.00011836 0)
(0.0237917 -5.08091e-05 0)
(0.0333983 -6.54267e-05 0)
(0.0549054 0.000114419 1.14287e-20)
(0.0528269 0.000104704 1.23371e-19)
(0.0532237 0.000105778 1.26834e-20)
(0.0576284 -0.000116022 1.10068e-20)
(0.055319 -0.000113161 1.33869e-19)
(0.0557414 -0.000113836 -3.15232e-21)
(0.0573429 -0.00011549 -1.56082e-20)
(0.0550575 -0.000112648 -6.24428e-20)
(0.0554748 -0.000113213 -2.28169e-19)
(0.0570585 -0.000114944 2.00318e-20)
(0.0547972 -0.000112139 -3.21186e-21)
(0.0549631 -0.00011405 2.04617e-22)
(0.0527119 7.17794e-06 1.98712e-19)
(0.0567751 -0.00011443 -3.33154e-20)
(0.0545378 -0.000111659 8.32317e-22)
(0.0546982 -0.000113553 -2.0308e-21)
(0.0549771 -0.000113971 2.11408e-19)
(0.0564912 -0.000109193 -1.97031e-20)
(0.0542779 -0.00010689 -1.28281e-19)
(0.0544328 -0.000108702 7.28207e-21)
(0.0547108 -0.000109104 1.40445e-19)
(0.0562063 -8.62018e-05 2.36128e-20)
(0.0540171 -8.57849e-05 -2.14775e-21)
(0.0541665 -8.71441e-05 -1.71913e-22)
(0.0544435 -8.74709e-05 -1.10284e-21)
(0.0559271 -7.19567e-05 2.91081e-20)
(0.0537614 -7.26892e-05 -1.31092e-19)
(0.0539054 -7.37825e-05 1.42219e-19)
(0.0541801 -7.39827e-05 1.87591e-21)
(0.055636 -6.32333e-05 -1.10674e-20)
(0.0534939 -6.46579e-05 -1.95734e-19)
(0.0536323 -6.55597e-05 -1.81216e-19)
(0.0536384 -6.65233e-05 2.127e-19)
(0.0528211 7.5799e-06 1.15076e-18)
(0.055384 -6.17671e-05 2.48989e-20)
(0.0532656 -6.33003e-05 -1.90331e-19)
(0.0533991 -6.41416e-05 1.35986e-19)
(0.0534018 -6.5056e-05 2.66003e-19)
(0.0536803 -6.56963e-05 1.68959e-19)
(0.0551003 -7.06282e-05 6.14044e-20)
(0.0530054 -7.13864e-05 -3.46865e-21)
(0.0531335 -7.24054e-05 3.81062e-22)
(0.0531332 -7.35197e-05 -3.19864e-22)
(0.0534776 -7.87192e-05 -2.05865e-19)
(0.0548304 -8.57007e-05 1.40563e-22)
(0.0527578 -8.51288e-05 1.85063e-19)
(0.0528808 -8.64267e-05 -1.58036e-20)
(0.0531526 -8.67162e-05 -2.65575e-19)
)
;

boundaryField
{
    inlet
    {
        type            calculated;
        value           uniform (0.0741049 0 0);
    }
    outlet2
    {
        type            calculated;
        value           uniform (0.0741049 0 0);
    }
    outlet1
    {
        type            calculated;
        value           nonuniform List<vector> 0();
    }
    wall
    {
        type            calculated;
        value           uniform (0.0741049 0 0);
    }
    symmetryBottom
    {
        type            symmetry;
    }
    symmetryZ0
    {
        type            symmetry;
    }
    symmetryZ05
    {
        type            symmetry;
    }
    procBoundary1to0
    {
        type            processor;
        value           uniform (0.0741049 0 0);
    }
}


// ************************************************************************* //
