/*--------------------------------*- C++ -*----------------------------------*\
| =========                 |                                                 |
| \\      /  F ield         | OpenFOAM: The Open Source CFD Toolbox           |
|  \\    /   O peration     | Version:  2412                                  |
|   \\  /    A nd           | Website:  www.openfoam.com                      |
|    \\/     M anipulation  |                                                 |
\*---------------------------------------------------------------------------*/
FoamFile
{
    version     2.0;
    format      ascii;
    arch        "LSB;label=32;scalar=64";
    class       volVectorField;
    location    "5.2e-06";
    object      U;
}
// * * * * * * * * * * * * * * * * * * * * * * * * * * * * * * * * * * * * * //

dimensions      [0 0 0 0 0 0 0];

internalField   nonuniform List<vector> 
84
(
(2636.39 -0.0155877 0)
(2609.64 -0.0653913 0)
(2624.99 -0.038664 -9.39124e-15)
(2636.39 -4.22441 0)
(2609.65 -5.63568 0)
(2624.99 -5.17908 -9.07968e-15)
(2636.39 -4.20929 0)
(2609.65 -5.61371 0)
(2624.99 -5.15944 1.22703e-14)
(2636.39 -4.20929 0)
(2609.65 -5.61371 0)
(2624.99 -5.15944 -1.61432e-14)
(2636.39 -4.20929 0)
(2609.65 -5.61371 0)
(2624.99 -5.15944 -2.46663e-14)
(2636.39 -4.20929 0)
(2609.65 -5.61371 0)
(2624.99 -5.15944 1.57061e-14)
(2636.39 -4.20929 0)
(2609.65 -5.61371 0)
(2624.99 -5.15944 -1.77384e-14)
(2636.39 -4.20929 0)
(2609.65 -5.61371 0)
(2624.99 -5.15944 -2.04947e-14)
(2636.39 -4.20929 0)
(2609.65 -5.61371 0)
(2624.99 -5.15944 9.26281e-15)
(2636.39 -4.20929 0)
(2609.65 -5.61371 0)
(2624.99 -5.15944 -1.7804e-14)
(2636.39 -4.2093 0)
(2609.65 -5.61339 0)
(2624.99 -5.1593 -4.7619e-14)
(2636.39 -4.20983 0)
(2609.64 -5.57311 0)
(2625 -5.14232 0)
(2631.09 5.48304 5.47671e-16)
(2629.98 5.21267 6.142e-15)
(2630.17 5.22729 6.26781e-16)
(2632.92 -5.30079 5.02876e-16)
(2631.71 -5.38343 6.36857e-15)
(2631.91 -5.37495 -1.48841e-16)
(2632.84 -5.3026 -7.16633e-16)
(2631.63 -5.38436 -2.98463e-15)
(2631.83 -5.37105 -1.08248e-14)
(2632.76 -5.30367 9.24298e-16)
(2631.56 -5.38533 -1.54245e-16)
(2631.68 -5.46081 9.79722e-18)
(2630.97 0.358267 9.91814e-15)
(2632.68 -5.30617 -1.54485e-15)
(2631.48 -5.38764 4.01599e-17)
(2631.6 -5.4632 -9.77044e-17)
(2631.69 -5.45564 1.01199e-14)
(2632.57 -5.08856 -9.18194e-16)
(2631.38 -5.18202 -6.21901e-15)
(2631.5 -5.25507 3.52044e-16)
(2631.58 -5.24788 6.75537e-15)
(2632.39 -4.03721 1.10589e-15)
(2631.2 -4.17862 -1.04618e-16)
(2631.31 -4.23331 -8.35124e-18)
(2631.39 -4.22769 -5.33031e-17)
(2632.27 -3.38671 1.37e-15)
(2631.06 -3.55738 -6.41561e-15)
(2631.18 -3.6014 6.94184e-15)
(2631.26 -3.59298 9.1104e-17)
(2632.13 -2.99156 -5.23599e-16)
(2630.88 -3.17993 -9.62639e-15)
(2631 -3.21611 -8.88976e-15)
(2630.99 -3.263 1.0433e-14)
(2630.95 0.377544 5.73175e-14)
(2632.21 -2.93557 1.18336e-15)
(2631.09 -3.12676 -9.40151e-15)
(2631.2 -3.16052 6.70059e-15)
(2631.19 -3.20541 1.31064e-14)
(2631.28 -3.22028 8.28197e-15)
(2632.14 -3.37391 2.93329e-15)
(2631 -3.54337 -1.72172e-16)
(2631.11 -3.58543 1.88697e-17)
(2631.1 -3.64063 -1.58393e-17)
(2631.21 -3.87315 -1.0129e-14)
(2632.09 -4.114 6.74762e-18)
(2630.95 -4.24525 9.22882e-15)
(2631.06 -4.30012 -7.86302e-16)
(2631.14 -4.2926 -1.31464e-14)
)
;

boundaryField
{
    inlet
    {
        type            calculated;
        value           uniform (0 0 0);
    }
    outlet2
    {
        type            calculated;
        value           uniform (0 0 0);
    }
    outlet1
    {
        type            calculated;
        value           nonuniform List<vector> 0();
    }
    wall
    {
        type            calculated;
        value           uniform (0 0 0);
    }
    symmetryBottom
    {
        type            symmetry;
    }
    symmetryZ0
    {
        type            symmetry;
    }
    symmetryZ05
    {
        type            symmetry;
    }
    procBoundary1to0
    {
        type            processor;
        value           uniform (0 0 0);
    }
}


// ************************************************************************* //
