/*--------------------------------*- C++ -*----------------------------------*\
| =========                 |                                                 |
| \\      /  F ield         | OpenFOAM: The Open Source CFD Toolbox           |
|  \\    /   O peration     | Version:  2412                                  |
|   \\  /    A nd           | Website:  www.openfoam.com                      |
|    \\/     M anipulation  |                                                 |
\*---------------------------------------------------------------------------*/
FoamFile
{
    version     2.0;
    format      ascii;
    arch        "LSB;label=32;scalar=64";
    class       volScalarField;
    location    "3.5e-06";
    object      E_dof0;
}
// * * * * * * * * * * * * * * * * * * * * * * * * * * * * * * * * * * * * * //

dimensions      [0 0 0 0 0 0 0];

internalField   nonuniform List<scalar> 
84
(
98.6759
78.0373
79.2084
79.1669
79.1698
79.1715
79.1734
79.4771
101.911
80.6533
81.8999
81.8981
81.9431
81.9884
82.0351
82.3469
101.407
80.5346
81.6102
81.6153
81.6554
81.6961
81.738
82.049
101.145
80.1483
81.3767
81.3676
81.4048
81.442
81.7522
100.952
79.8692
81.0951
81.0815
81.1142
81.1467
81.4561
100.616
79.5972
80.8151
80.7973
80.8254
80.8532
81.1617
100.288
79.3317
80.5414
80.5194
80.5431
80.5663
80.874
99.8749
79.1549
80.2664
80.2465
80.2656
80.2844
80.5914
99.6086
78.8477
80.0405
80.0111
80.027
80.3332
99.2634
78.5009
79.6869
79.6522
79.6625
79.9677
98.9037
78.2464
79.4216
79.383
79.3888
79.6932
98.264
78.0279
79.1462
79.1064
79.1079
79.1082
79.4119
)
;

boundaryField
{
    inlet
    {
        type            calculated;
        value           nonuniform List<scalar> 0();
    }
    outlet2
    {
        type            calculated;
        value           uniform 99.4306;
    }
    outlet1
    {
        type            calculated;
        value           uniform 99.4306;
    }
    wall
    {
        type            calculated;
        value           uniform 99.4306;
    }
    symmetryBottom
    {
        type            symmetry;
    }
    symmetryZ0
    {
        type            symmetry;
    }
    symmetryZ05
    {
        type            symmetry;
    }
    procBoundary0to1
    {
        type            processor;
        value           uniform 99.4306;
    }
}


// ************************************************************************* //
