/*--------------------------------*- C++ -*----------------------------------*\
| =========                 |                                                 |
| \\      /  F ield         | OpenFOAM: The Open Source CFD Toolbox           |
|  \\    /   O peration     | Version:  2412                                  |
|   \\  /    A nd           | Website:  www.openfoam.com                      |
|    \\/     M anipulation  |                                                 |
\*---------------------------------------------------------------------------*/
FoamFile
{
    version     2.0;
    format      ascii;
    arch        "LSB;label=32;scalar=64";
    class       volScalarField;
    location    "3.5e-06";
    object      T;
}
// * * * * * * * * * * * * * * * * * * * * * * * * * * * * * * * * * * * * * //

dimensions      [0 0 0 0 0 0 0];

internalField   nonuniform List<scalar> 
84
(
202.125
202.165
202.211
202.243
202.278
202.313
202.35
202.348
199.991
199.986
200
199.999
199.999
199.999
199.999
199.999
199.983
199.987
200
199.999
199.999
199.999
199.999
199.999
199.992
199.985
200
199.999
199.999
199.999
199.999
199.993
199.987
200.002
200.001
200.001
200.001
200.001
200.355
200.367
200.384
200.388
200.393
200.397
200.397
201.906
201.966
202.005
202.035
202.066
202.098
202.096
203.308
203.496
203.528
203.583
203.64
203.698
203.694
208.861
209.68
209.806
209.969
210.137
210.124
196.276
196.179
196.138
196.075
196.011
196.015
199.071
199.083
199.081
199.065
199.05
199.051
199.938
199.601
199.621
199.614
199.608
199.601
199.602
)
;

boundaryField
{
    inlet
    {
        type            calculated;
        value           nonuniform List<scalar> 0();
    }
    outlet2
    {
        type            calculated;
        value           uniform 0;
    }
    outlet1
    {
        type            calculated;
        value           uniform 0;
    }
    wall
    {
        type            calculated;
        value           uniform 0;
    }
    symmetryBottom
    {
        type            symmetry;
    }
    symmetryZ0
    {
        type            symmetry;
    }
    symmetryZ05
    {
        type            symmetry;
    }
    procBoundary0to1
    {
        type            processor;
        value           uniform 0;
    }
}


// ************************************************************************* //
