/*--------------------------------*- C++ -*----------------------------------*\
| =========                 |                                                 |
| \\      /  F ield         | OpenFOAM: The Open Source CFD Toolbox           |
|  \\    /   O peration     | Version:  2412                                  |
|   \\  /    A nd           | Website:  www.openfoam.com                      |
|    \\/     M anipulation  |                                                 |
\*---------------------------------------------------------------------------*/
FoamFile
{
    version     2.0;
    format      ascii;
    arch        "LSB;label=32;scalar=64";
    class       volScalarField;
    location    "1e-05";
    object      E;
}
// * * * * * * * * * * * * * * * * * * * * * * * * * * * * * * * * * * * * * //

dimensions      [0 0 0 0 0 0 0];

internalField   nonuniform List<scalar> 
84
(
102.321
48.7255
53.0192
52.8069
52.8346
52.8565
52.8179
53.5314
110.146
52.5471
57.2235
57.0602
57.1564
57.2482
57.2849
58.0425
108.503
52.7275
56.6899
56.5882
56.6738
56.7589
56.7883
57.5407
107.174
51.7707
56.2678
56.0996
56.185
56.2038
56.9506
107.349
51.1732
55.7197
55.5394
55.6155
55.6242
56.3654
106.348
50.6749
55.1719
54.9848
55.0517
55.0505
55.7861
105.336
50.1853
54.6291
54.4358
54.4936
54.4826
55.2127
103.998
49.971
54.0638
53.8939
53.941
53.9206
54.6451
102.867
49.2777
53.5846
53.3847
53.3646
54.0834
102.411
48.7494
53.0518
52.8433
52.814
53.5273
101.356
48.2757
52.5216
52.3073
52.269
52.9769
99.3873
47.9489
51.9829
51.7721
51.7863
51.7297
52.4325
)
;

boundaryField
{
    inlet
    {
        type            calculated;
        value           nonuniform List<scalar> 0();
    }
    outlet2
    {
        type            calculated;
        value           uniform 0;
    }
    outlet1
    {
        type            calculated;
        value           uniform 0;
    }
    wall
    {
        type            calculated;
        value           uniform 0;
    }
    symmetryBottom
    {
        type            symmetry;
    }
    symmetryZ0
    {
        type            symmetry;
    }
    symmetryZ05
    {
        type            symmetry;
    }
    procBoundary0to1
    {
        type            processor;
        value           uniform 0;
    }
}


// ************************************************************************* //
