/*--------------------------------*- C++ -*----------------------------------*\
| =========                 |                                                 |
| \\      /  F ield         | OpenFOAM: The Open Source CFD Toolbox           |
|  \\    /   O peration     | Version:  2412                                  |
|   \\  /    A nd           | Website:  www.openfoam.com                      |
|    \\/     M anipulation  |                                                 |
\*---------------------------------------------------------------------------*/
FoamFile
{
    version     2.0;
    format      ascii;
    arch        "LSB;label=32;scalar=64";
    class       volScalarField;
    location    "4e-06";
    object      E_dof0;
}
// * * * * * * * * * * * * * * * * * * * * * * * * * * * * * * * * * * * * * //

dimensions      [0 0 0 0 0 0 0];

internalField   nonuniform List<scalar> 
84
(
98.4056
75.1904
76.7011
76.639
76.6431
76.6453
76.6476
76.9864
102.094
78.0738
79.6817
79.6628
79.7137
79.764
79.8161
80.1652
101.493
77.9737
79.3554
79.3488
79.394
79.4392
79.4859
79.834
101.198
77.5169
79.1003
79.0735
79.1157
79.157
79.5041
100.998
77.2064
78.7877
78.7559
78.793
78.8291
79.1752
100.614
76.9057
78.4767
78.4402
78.4722
78.5031
78.8481
100.239
76.6123
78.1725
78.1315
78.1586
78.1844
78.5283
99.7538
76.4347
77.8653
77.8292
77.851
77.8719
78.2149
99.4496
76.0781
77.616
77.567
77.5852
77.9273
99.0702
75.6972
77.2269
77.1721
77.1843
77.5249
98.6524
75.4168
76.9318
76.8728
76.88
77.2197
97.9261
75.1849
76.6264
76.5673
76.5696
76.5701
76.9088
)
;

boundaryField
{
    inlet
    {
        type            calculated;
        value           nonuniform List<scalar> 0();
    }
    outlet2
    {
        type            calculated;
        value           uniform 99.4306;
    }
    outlet1
    {
        type            calculated;
        value           uniform 99.4306;
    }
    wall
    {
        type            calculated;
        value           uniform 99.4306;
    }
    symmetryBottom
    {
        type            symmetry;
    }
    symmetryZ0
    {
        type            symmetry;
    }
    symmetryZ05
    {
        type            symmetry;
    }
    procBoundary0to1
    {
        type            processor;
        value           uniform 99.4306;
    }
}


// ************************************************************************* //
