/*--------------------------------*- C++ -*----------------------------------*\
| =========                 |                                                 |
| \\      /  F ield         | OpenFOAM: The Open Source CFD Toolbox           |
|  \\    /   O peration     | Version:  2412                                  |
|   \\  /    A nd           | Website:  www.openfoam.com                      |
|    \\/     M anipulation  |                                                 |
\*---------------------------------------------------------------------------*/
FoamFile
{
    version     2.0;
    format      ascii;
    arch        "LSB;label=32;scalar=64";
    class       volScalarField;
    location    "4e-06";
    object      rho;
}
// * * * * * * * * * * * * * * * * * * * * * * * * * * * * * * * * * * * * * //

dimensions      [0 0 0 0 0 0 0];

internalField   nonuniform List<scalar> 
84
(
2.78362e-05
2.13387e-05
2.17568e-05
2.174e-05
2.17412e-05
2.1742e-05
2.17427e-05
2.18376e-05
2.8857e-05
2.21387e-05
2.25834e-05
2.25786e-05
2.25928e-05
2.26069e-05
2.26215e-05
2.27193e-05
2.86896e-05
2.21099e-05
2.24922e-05
2.24907e-05
2.25033e-05
2.25159e-05
2.2529e-05
2.26265e-05
2.86072e-05
2.19826e-05
2.24206e-05
2.24135e-05
2.24253e-05
2.24369e-05
2.25341e-05
2.85507e-05
2.18957e-05
2.2333e-05
2.23246e-05
2.23349e-05
2.2345e-05
2.24419e-05
2.84429e-05
2.18109e-05
2.22454e-05
2.22357e-05
2.22446e-05
2.22532e-05
2.23498e-05
2.83349e-05
2.17266e-05
2.21581e-05
2.2147e-05
2.21545e-05
2.21617e-05
2.2258e-05
2.81962e-05
2.1674e-05
2.20693e-05
2.20595e-05
2.20655e-05
2.20713e-05
2.21673e-05
2.80964e-05
2.15619e-05
2.19865e-05
2.19729e-05
2.19777e-05
2.20734e-05
2.80239e-05
2.14813e-05
2.19048e-05
2.18901e-05
2.18936e-05
2.1989e-05
2.78986e-05
2.13965e-05
2.18156e-05
2.17996e-05
2.18016e-05
2.18967e-05
2.76923e-05
2.13301e-05
2.17285e-05
2.17124e-05
2.1713e-05
2.17132e-05
2.1808e-05
)
;

boundaryField
{
    inlet
    {
        type            calculated;
        value           nonuniform List<scalar> 0();
    }
    outlet2
    {
        type            calculated;
        value           uniform 0;
    }
    outlet1
    {
        type            calculated;
        value           uniform 0;
    }
    wall
    {
        type            calculated;
        value           uniform 0;
    }
    symmetryBottom
    {
        type            symmetry;
    }
    symmetryZ0
    {
        type            symmetry;
    }
    symmetryZ05
    {
        type            symmetry;
    }
    procBoundary0to1
    {
        type            processor;
        value           uniform 0;
    }
}


// ************************************************************************* //
