/*--------------------------------*- C++ -*----------------------------------*\
| =========                 |                                                 |
| \\      /  F ield         | OpenFOAM: The Open Source CFD Toolbox           |
|  \\    /   O peration     | Version:  2412                                  |
|   \\  /    A nd           | Website:  www.openfoam.com                      |
|    \\/     M anipulation  |                                                 |
\*---------------------------------------------------------------------------*/
FoamFile
{
    version     2.0;
    format      ascii;
    arch        "LSB;label=32;scalar=64";
    class       volVectorField;
    location    "4e-06";
    object      rhoU_dof0;
}
// * * * * * * * * * * * * * * * * * * * * * * * * * * * * * * * * * * * * * //

dimensions      [0 0 0 0 0 0 0];

internalField   nonuniform List<vector> 
84
(
(0.0733555 0.000115687 1.16901e-19)
(0.0561396 9.03333e-05 -1.16178e-19)
(0.0572537 9.33855e-05 -2.40786e-19)
(0.0572082 9.46878e-05 1.27381e-19)
(0.0572113 9.61056e-05 -1.02667e-20)
(0.057213 9.75641e-05 1.53036e-20)
(0.0572148 9.90676e-05 2.29104e-19)
(0.0574661 9.93964e-05 4.15885e-20)
(0.0760843 -0.000121478 1.21133e-19)
(0.0582754 -9.59146e-05 -1.15585e-19)
(0.0594609 -9.90309e-05 -2.94383e-19)
(0.0594475 -0.000100516 2.40241e-20)
(0.0594852 -0.000102116 -5.44743e-19)
(0.0595226 -0.000103765 9.88628e-20)
(0.0595612 -0.000105468 4.38265e-19)
(0.0598202 -0.000105796 8.91348e-20)
(0.0756396 -0.000112851 -5.16089e-19)
(0.0582001 -0.000102592 8.77337e-20)
(0.059219 -9.81114e-05 1.61972e-19)
(0.0592146 -0.000100168 -1.24855e-20)
(0.059248 -0.00010173 -5.56208e-21)
(0.0592816 -0.000103367 2.21727e-19)
(0.0593162 -0.000105058 -1.8656e-19)
(0.0595745 -0.000105385 -2.18653e-19)
(0.075421 -0.000116053 -5.02427e-19)
(0.057862 -9.68775e-05 2.3793e-19)
(0.0590296 -9.98331e-05 -1.7361e-20)
(0.0590103 -0.000101346 -4.85922e-19)
(0.0590415 -0.000102972 4.65686e-19)
(0.0590722 -0.000104649 9.02763e-20)
(0.0593297 -0.000104976 -1.86543e-19)
(0.0752717 -0.000122118 -2.97268e-19)
(0.0576317 -9.62689e-05 -8.83023e-20)
(0.0587977 -9.94903e-05 6.38577e-21)
(0.0587746 -0.000100984 1.94957e-21)
(0.0588021 -0.000102599 -1.70413e-19)
(0.0588289 -0.000104264 1.32188e-19)
(0.0590856 -0.00010459 3.08316e-19)
(0.0749854 -0.000116773 -1.81731e-19)
(0.0574068 -9.19364e-05 2.61592e-19)
(0.0585652 -9.50439e-05 -1.81584e-20)
(0.0585387 -9.6484e-05 3.14983e-19)
(0.0585624 -9.80423e-05 -2.8336e-19)
(0.0585852 -9.96494e-05 2.44031e-19)
(0.0588411 -9.99622e-05 -5.23705e-19)
(0.0746972 -9.37531e-05 -4.85309e-23)
(0.0571817 -7.38269e-05 2.55448e-19)
(0.0583318 -7.62827e-05 -1.78155e-20)
(0.0583018 -7.74357e-05 -1.38797e-22)
(0.0583217 -7.86801e-05 2.63871e-19)
(0.0583407 -7.99635e-05 3.62107e-20)
(0.0585958 -8.02159e-05 2.6385e-19)
(0.0743284 -7.24343e-05 2.90082e-21)
(0.0570417 -6.79463e-05 2.03044e-21)
(0.0580959 -6.40659e-05 -1.04909e-21)
(0.0580694 -6.55051e-05 -2.31943e-21)
(0.0580853 -6.6542e-05 -4.65799e-22)
(0.0581004 -6.76331e-05 9.22939e-22)
(0.0583548 -6.7847e-05 -2.31747e-19)
(0.0740628 -6.83124e-05 6.31305e-19)
(0.0567431 -5.67305e-05 -4.061e-20)
(0.0578753 -5.85076e-05 -5.36828e-19)
(0.0578386 -5.93932e-05 -1.98069e-19)
(0.0578512 -6.03483e-05 2.93425e-19)
(0.0581048 -6.05415e-05 -1.49687e-20)
(0.0738728 -7.10084e-05 -2.27245e-19)
(0.0565339 -5.56902e-05 1.45138e-20)
(0.0576628 -5.7574e-05 -2.53565e-19)
(0.057623 -5.84152e-05 2.72744e-19)
(0.0576324 -5.9328e-05 4.6292e-19)
(0.0578852 -5.95204e-05 -3.5329e-20)
(0.0735415 -7.62262e-05 -3.14236e-19)
(0.0563092 -6.30601e-05 1.95107e-20)
(0.0574266 -6.48662e-05 -3.98633e-22)
(0.0573834 -6.58362e-05 4.76446e-19)
(0.0573889 -6.68726e-05 5.01451e-19)
(0.0576409 -6.70887e-05 2.48236e-20)
(0.0729956 -7.80315e-06 -1.68548e-20)
(0.0561338 -8.13915e-05 7.17043e-22)
(0.0571963 -7.59777e-05 -2.18333e-23)
(0.0571531 -7.74943e-05 2.97457e-19)
(0.0571548 -7.86738e-05 -2.10422e-20)
(0.0571552 -7.99046e-05 9.11533e-22)
(0.0574065 -8.01658e-05 -2.61069e-19)
)
;

boundaryField
{
    inlet
    {
        type            calculated;
        value           nonuniform List<vector> 0();
    }
    outlet2
    {
        type            calculated;
        value           uniform (0.0741049 0 0);
    }
    outlet1
    {
        type            calculated;
        value           uniform (0.0741049 0 0);
    }
    wall
    {
        type            calculated;
        value           uniform (0.0741049 0 0);
    }
    symmetryBottom
    {
        type            symmetry;
    }
    symmetryZ0
    {
        type            symmetry;
    }
    symmetryZ05
    {
        type            symmetry;
    }
    procBoundary0to1
    {
        type            processor;
        value           uniform (0.0741049 0 0);
    }
}


// ************************************************************************* //
