/*--------------------------------*- C++ -*----------------------------------*\
| =========                 |                                                 |
| \\      /  F ield         | OpenFOAM: The Open Source CFD Toolbox           |
|  \\    /   O peration     | Version:  2412                                  |
|   \\  /    A nd           | Website:  www.openfoam.com                      |
|    \\/     M anipulation  |                                                 |
\*---------------------------------------------------------------------------*/
FoamFile
{
    version     2.0;
    format      ascii;
    arch        "LSB;label=32;scalar=64";
    class       volScalarField;
    location    "4e-06";
    object      T;
}
// * * * * * * * * * * * * * * * * * * * * * * * * * * * * * * * * * * * * * //

dimensions      [0 0 0 0 0 0 0];

internalField   nonuniform List<scalar> 
84
(
202.428
202.473
202.529
202.565
202.605
202.645
202.687
202.684
199.989
199.981
200.001
199.998
199.999
199.998
199.998
199.999
199.978
199.982
200
199.998
199.998
199.998
199.998
199.999
199.991
199.98
200.001
199.998
199.998
199.998
199.999
199.992
199.982
200.003
200.001
200.001
200.001
200.001
200.392
200.404
200.428
200.43
200.436
200.441
200.44
202.175
202.243
202.291
202.324
202.36
202.396
202.393
203.779
204.009
204.041
204.105
204.17
204.236
204.231
210.162
211.203
211.337
211.529
211.725
211.708
195.723
195.612
195.569
195.495
195.421
195.427
198.926
198.945
198.945
198.926
198.909
198.91
199.921
199.536
199.566
199.556
199.549
199.542
199.543
)
;

boundaryField
{
    inlet
    {
        type            calculated;
        value           nonuniform List<scalar> 0();
    }
    outlet2
    {
        type            calculated;
        value           uniform 0;
    }
    outlet1
    {
        type            calculated;
        value           uniform 0;
    }
    wall
    {
        type            calculated;
        value           uniform 0;
    }
    symmetryBottom
    {
        type            symmetry;
    }
    symmetryZ0
    {
        type            symmetry;
    }
    symmetryZ05
    {
        type            symmetry;
    }
    procBoundary0to1
    {
        type            processor;
        value           uniform 0;
    }
}


// ************************************************************************* //
