/*--------------------------------*- C++ -*----------------------------------*\
| =========                 |                                                 |
| \\      /  F ield         | OpenFOAM: The Open Source CFD Toolbox           |
|  \\    /   O peration     | Version:  2412                                  |
|   \\  /    A nd           | Website:  www.openfoam.com                      |
|    \\/     M anipulation  |                                                 |
\*---------------------------------------------------------------------------*/
FoamFile
{
    version     2.0;
    format      ascii;
    arch        "LSB;label=32;scalar=64";
    class       volScalarField;
    location    "5.9e-06";
    object      rho;
}
// * * * * * * * * * * * * * * * * * * * * * * * * * * * * * * * * * * * * * //

dimensions      [0 0 0 0 0 0 0];

internalField   nonuniform List<scalar> 
84
(
2.81106e-05
7.10556e-06
1.15946e-05
2.8119e-05
7.11265e-06
1.16013e-05
2.81169e-05
7.11174e-06
1.16001e-05
2.81169e-05
7.11174e-06
1.16001e-05
2.81169e-05
7.11174e-06
1.16001e-05
2.81169e-05
7.11174e-06
1.16001e-05
2.81169e-05
7.11174e-06
1.16001e-05
2.81169e-05
7.11174e-06
1.16001e-05
2.81169e-05
7.11174e-06
1.16001e-05
2.81169e-05
7.11174e-06
1.16001e-05
2.81169e-05
7.11173e-06
1.16001e-05
2.81169e-05
7.11014e-06
1.15993e-05
2.01419e-05
1.91885e-05
1.93665e-05
2.12656e-05
2.02002e-05
2.03914e-05
2.11463e-05
2.00927e-05
2.02813e-05
2.10275e-05
1.99857e-05
2.00696e-05
1.91344e-05
2.09092e-05
1.98791e-05
1.99605e-05
2.00754e-05
2.07908e-05
1.97726e-05
1.98515e-05
1.99659e-05
2.06728e-05
1.96664e-05
1.97428e-05
1.98568e-05
2.05569e-05
1.95621e-05
1.9636e-05
1.97489e-05
2.04352e-05
1.94527e-05
1.9524e-05
1.95255e-05
1.91865e-05
2.03302e-05
1.93579e-05
1.94271e-05
1.94273e-05
1.95425e-05
2.02115e-05
1.9251e-05
1.93178e-05
1.93167e-05
1.94634e-05
2.00993e-05
1.91498e-05
1.92142e-05
1.93258e-05
)
;

boundaryField
{
    inlet
    {
        type            calculated;
        value           uniform 0;
    }
    outlet2
    {
        type            calculated;
        value           uniform 0;
    }
    outlet1
    {
        type            calculated;
        value           nonuniform List<scalar> 0();
    }
    wall
    {
        type            calculated;
        value           uniform 0;
    }
    symmetryBottom
    {
        type            symmetry;
    }
    symmetryZ0
    {
        type            symmetry;
    }
    symmetryZ05
    {
        type            symmetry;
    }
    procBoundary1to0
    {
        type            processor;
        value           uniform 0;
    }
}


// ************************************************************************* //
