/*--------------------------------*- C++ -*----------------------------------*\
| =========                 |                                                 |
| \\      /  F ield         | OpenFOAM: The Open Source CFD Toolbox           |
|  \\    /   O peration     | Version:  2412                                  |
|   \\  /    A nd           | Website:  www.openfoam.com                      |
|    \\/     M anipulation  |                                                 |
\*---------------------------------------------------------------------------*/
FoamFile
{
    version     2.0;
    format      ascii;
    arch        "LSB;label=32;scalar=64";
    class       volVectorField;
    location    "5.9e-06";
    object      rhoU_dof0;
}
// * * * * * * * * * * * * * * * * * * * * * * * * * * * * * * * * * * * * * //

dimensions      [0 0 0 0 0 0 0];

internalField   nonuniform List<vector> 
84
(
(0.0741104 -5.47959e-07 0)
(0.0184713 -6.41606e-07 0)
(0.0304269 -5.32518e-07 -1.22574e-19)
(0.0741325 -0.000131162 0)
(0.0184898 -4.73668e-05 0)
(0.0304444 -6.78369e-05 -1.18664e-19)
(0.0741269 -0.000130627 0)
(0.0184875 -4.71502e-05 0)
(0.0304413 -6.75405e-05 1.6003e-19)
(0.0741269 -0.000130627 0)
(0.0184875 -4.71501e-05 0)
(0.0304413 -6.75405e-05 -2.12463e-19)
(0.0741269 -0.000130627 0)
(0.0184875 -4.71501e-05 0)
(0.0304413 -6.75405e-05 -3.20891e-19)
(0.0741269 -0.000130627 0)
(0.0184875 -4.71501e-05 0)
(0.0304413 -6.75405e-05 2.08434e-19)
(0.0741269 -0.000130627 0)
(0.0184875 -4.71501e-05 0)
(0.0304413 -6.75405e-05 -2.28856e-19)
(0.0741269 -0.000130627 0)
(0.0184875 -4.71501e-05 0)
(0.0304413 -6.75405e-05 -2.63128e-19)
(0.0741269 -0.000130627 0)
(0.0184875 -4.71501e-05 0)
(0.0304413 -6.75405e-05 1.20979e-19)
(0.0741269 -0.000130627 0)
(0.0184875 -4.71501e-05 0)
(0.0304413 -6.75405e-05 -2.3049e-19)
(0.0741269 -0.000130627 0)
(0.0184874 -4.71465e-05 0)
(0.0304412 -6.75385e-05 -6.27024e-19)
(0.0741271 -0.000130643 0)
(0.0184833 -4.67404e-05 0)
(0.0304391 -6.73234e-05 0)
(0.0529829 0.000125425 1.39215e-20)
(0.0504482 0.000112836 1.3598e-19)
(0.0509211 0.000114314 1.40678e-20)
(0.0559832 -0.000127889 1.34039e-20)
(0.0531476 -0.000123392 1.47743e-19)
(0.053656 -0.000124333 -3.90477e-21)
(0.0556671 -0.000127219 -1.88239e-20)
(0.052863 -0.000122756 -6.99512e-20)
(0.0533646 -0.000123555 -2.38068e-19)
(0.0553525 -0.000126531 2.4282e-20)
(0.0525798 -0.000122125 -3.88385e-21)
(0.052804 -0.000124349 2.74359e-22)
(0.0503278 8.97514e-06 2.10607e-19)
(0.055039 -0.000125884 -3.32113e-20)
(0.0522978 -0.00012153 1.04089e-21)
(0.0525153 -0.000123732 -2.23899e-21)
(0.0528195 -0.00012425 2.12293e-19)
(0.054725 -0.000120281 -2.38835e-20)
(0.0520153 -0.000116521 -1.42066e-19)
(0.0522261 -0.000118629 9.70836e-21)
(0.0525292 -0.000119128 1.54043e-19)
(0.0544099 -9.47402e-05 2.81516e-20)
(0.0517317 -9.34621e-05 -2.89835e-21)
(0.0519358 -9.50214e-05 -7.97659e-24)
(0.0522377 -9.54281e-05 -1.2276e-21)
(0.0541018 -7.90705e-05 3.4479e-20)
(0.0514542 -7.92853e-05 -1.46083e-19)
(0.051652 -8.05275e-05 1.59339e-19)
(0.0519509 -8.07759e-05 2.25848e-21)
(0.0537782 -6.91335e-05 -1.34976e-20)
(0.0511619 -7.02857e-05 -2.06902e-19)
(0.0513529 -7.12896e-05 -1.95027e-19)
(0.0513566 -7.23394e-05 2.23399e-19)
(0.0504644 9.46032e-06 1.23552e-18)
(0.0535043 -6.71746e-05 2.96035e-20)
(0.0509182 -6.85074e-05 -2.06304e-19)
(0.0511033 -6.94295e-05 1.53313e-19)
(0.0511035 -7.04169e-05 2.77016e-19)
(0.0514087 -7.1229e-05 1.83853e-19)
(0.0531903 -7.70324e-05 7.40152e-20)
(0.050635 -7.73426e-05 -4.83841e-21)
(0.0508135 -7.84819e-05 4.87668e-22)
(0.0508106 -7.97007e-05 -4.08907e-22)
(0.051199 -8.62239e-05 -2.17975e-19)
(0.0528938 -9.35301e-05 1.5413e-22)
(0.0503675 -9.21215e-05 2.01744e-19)
(0.05054 -9.35944e-05 -1.97805e-20)
(0.0508354 -9.39519e-05 -2.77607e-19)
)
;

boundaryField
{
    inlet
    {
        type            calculated;
        value           uniform (0.0741049 0 0);
    }
    outlet2
    {
        type            calculated;
        value           uniform (0.0741049 0 0);
    }
    outlet1
    {
        type            calculated;
        value           nonuniform List<vector> 0();
    }
    wall
    {
        type            calculated;
        value           uniform (0.0741049 0 0);
    }
    symmetryBottom
    {
        type            symmetry;
    }
    symmetryZ0
    {
        type            symmetry;
    }
    symmetryZ05
    {
        type            symmetry;
    }
    procBoundary1to0
    {
        type            processor;
        value           uniform (0.0741049 0 0);
    }
}


// ************************************************************************* //
