/*--------------------------------*- C++ -*----------------------------------*\
| =========                 |                                                 |
| \\      /  F ield         | OpenFOAM: The Open Source CFD Toolbox           |
|  \\    /   O peration     | Version:  2412                                  |
|   \\  /    A nd           | Website:  www.openfoam.com                      |
|    \\/     M anipulation  |                                                 |
\*---------------------------------------------------------------------------*/
FoamFile
{
    version     2.0;
    format      ascii;
    arch        "LSB;label=32;scalar=64";
    class       volScalarField;
    location    "5.9e-06";
    object      T;
}
// * * * * * * * * * * * * * * * * * * * * * * * * * * * * * * * * * * * * * //

dimensions      [0 0 0 0 0 0 0];

internalField   nonuniform List<scalar> 
84
(
200.01
198.295
200.196
199.975
198.194
200.13
199.966
198.18
200.118
199.966
198.18
200.118
199.966
198.18
200.118
199.966
198.18
200.118
199.966
198.18
200.118
199.966
198.18
200.118
199.966
198.18
200.118
199.966
198.18
200.118
199.966
198.18
200.118
199.966
198.152
200.109
203.722
203.499
203.52
200.022
199.99
199.999
200.023
199.99
200
200.023
199.99
199.999
200.026
200.027
199.994
200.003
200.003
200.592
200.523
200.539
200.538
203.322
203.112
203.18
203.174
205.899
205.55
205.668
205.657
216.871
215.793
216.151
216.407
198.493
193.707
193.962
193.855
193.763
193.486
198.506
198.551
198.531
198.51
198.617
199.387
199.387
199.383
199.384
)
;

boundaryField
{
    inlet
    {
        type            calculated;
        value           uniform 0;
    }
    outlet2
    {
        type            calculated;
        value           uniform 0;
    }
    outlet1
    {
        type            calculated;
        value           nonuniform List<scalar> 0();
    }
    wall
    {
        type            calculated;
        value           uniform 0;
    }
    symmetryBottom
    {
        type            symmetry;
    }
    symmetryZ0
    {
        type            symmetry;
    }
    symmetryZ05
    {
        type            symmetry;
    }
    procBoundary1to0
    {
        type            processor;
        value           uniform 0;
    }
}


// ************************************************************************* //
