/*--------------------------------*- C++ -*----------------------------------*\
| =========                 |                                                 |
| \\      /  F ield         | OpenFOAM: The Open Source CFD Toolbox           |
|  \\    /   O peration     | Version:  2412                                  |
|   \\  /    A nd           | Website:  www.openfoam.com                      |
|    \\/     M anipulation  |                                                 |
\*---------------------------------------------------------------------------*/
FoamFile
{
    version     2.0;
    format      ascii;
    arch        "LSB;label=32;scalar=64";
    class       volScalarField;
    location    "8.5e-06";
    object      E;
}
// * * * * * * * * * * * * * * * * * * * * * * * * * * * * * * * * * * * * * //

dimensions      [0 0 0 0 0 0 0];

internalField   nonuniform List<scalar> 
84
(
101.863
54.9697
58.1785
58.0489
58.0707
58.0901
58.0637
58.7123
108.47
58.6221
62.0913
62.0136
62.0986
62.1827
62.2261
62.9075
107.161
58.6504
61.606
61.5641
61.6406
61.7182
61.7545
62.432
106.084
57.8453
61.1982
61.1126
61.1866
61.2134
61.8867
106.106
57.308
60.6889
60.5932
60.6588
60.6762
61.3454
105.261
56.8339
60.181
60.0784
60.1354
60.1438
60.8088
104.41
56.3659
59.6772
59.5678
59.6165
59.6159
60.2768
103.321
56.1001
59.1601
59.0624
59.102
59.0926
59.7495
102.384
55.4849
58.7058
58.5869
58.574
59.2266
101.94
54.9928
58.2081
58.0812
58.0597
58.7083
101.055
54.5358
57.713
57.5798
57.5499
58.1945
99.3871
54.1868
57.2133
57.0793
57.0879
57.0448
57.6855
)
;

boundaryField
{
    inlet
    {
        type            calculated;
        value           nonuniform List<scalar> 0();
    }
    outlet2
    {
        type            calculated;
        value           uniform 0;
    }
    outlet1
    {
        type            calculated;
        value           uniform 0;
    }
    wall
    {
        type            calculated;
        value           uniform 0;
    }
    symmetryBottom
    {
        type            symmetry;
    }
    symmetryZ0
    {
        type            symmetry;
    }
    symmetryZ05
    {
        type            symmetry;
    }
    procBoundary0to1
    {
        type            processor;
        value           uniform 0;
    }
}


// ************************************************************************* //
