/*--------------------------------*- C++ -*----------------------------------*\
| =========                 |                                                 |
| \\      /  F ield         | OpenFOAM: The Open Source CFD Toolbox           |
|  \\    /   O peration     | Version:  2412                                  |
|   \\  /    A nd           | Website:  www.openfoam.com                      |
|    \\/     M anipulation  |                                                 |
\*---------------------------------------------------------------------------*/
FoamFile
{
    version     2.0;
    format      ascii;
    arch        "LSB;label=32;scalar=64";
    class       volVectorField;
    location    "8.5e-06";
    object      rhoU;
}
// * * * * * * * * * * * * * * * * * * * * * * * * * * * * * * * * * * * * * //

dimensions      [0 0 0 0 0 0 0];

internalField   nonuniform List<vector> 
84
(
(0.0758961 -4.24968e-06 2.98355e-19)
(0.0411205 -2.73678e-06 -1.68118e-19)
(0.043487 -2.90012e-06 -4.69106e-19)
(0.043392 -2.98374e-06 2.36558e-19)
(0.0434081 -3.07392e-06 -2.14697e-20)
(0.0434224 -3.168e-06 -1.39235e-20)
(0.0434029 -3.27382e-06 4.18311e-19)
(0.0438843 -3.28313e-06 4.78933e-20)
(0.0808015 -0.00026968 2.91434e-19)
(0.0438414 -0.000151313 -1.65794e-19)
(0.0464001 -0.000161721 -5.84606e-19)
(0.0463439 -0.000163967 1.20485e-19)
(0.046407 -0.000166654 -1.02039e-18)
(0.0464694 -0.000169413 1.26922e-19)
(0.0465019 -0.000172393 8.18842e-19)
(0.0470075 -0.000173695 1.50243e-19)
(0.0798337 -0.000251375 -1.3175e-18)
(0.0438596 -0.000168735 1.46059e-19)
(0.0460398 -0.000161977 2.85179e-19)
(0.0460097 -0.000165708 -2.0282e-20)
(0.0460665 -0.000168378 -5.21186e-20)
(0.0461241 -0.000171195 4.41246e-19)
(0.0461513 -0.000174236 -3.01011e-19)
(0.046654 -0.000175547 -3.77154e-19)
(0.0790372 -0.000242778 -1.30321e-18)
(0.0432632 -0.000155971 4.6649e-19)
(0.0457364 -0.000164605 2.98606e-20)
(0.0456742 -0.000167019 -9.54454e-19)
(0.0457291 -0.0001698 8.64658e-19)
(0.0457492 -0.000172793 1.55877e-19)
(0.0462489 -0.000174097 -2.91707e-19)
(0.0790509 -0.000272073 -6.94864e-19)
(0.0428642 -0.000152639 -1.43695e-19)
(0.0453579 -0.000163361 1.06593e-20)
(0.0452883 -0.000165639 1.66791e-20)
(0.0453369 -0.000168378 -3.04977e-19)
(0.0453501 -0.000171321 1.86171e-19)
(0.0458467 -0.000172619 5.56836e-19)
(0.0784244 -0.00027046 -4.49174e-19)
(0.0425116 -0.000151381 5.04443e-19)
(0.0449805 -0.000162035 -7.79508e-20)
(0.0449057 -0.000164272 6.31553e-19)
(0.044948 -0.000166967 -5.74991e-19)
(0.0449544 -0.000169862 5.06973e-19)
(0.045448 -0.000171153 -8.91237e-19)
(0.077794 -0.000268228 -3.88652e-20)
(0.0421636 -0.00015026 4.75226e-19)
(0.0446061 -0.000160709 -3.30468e-20)
(0.0445263 -0.000162917 -3.01746e-20)
(0.0445624 -0.000165568 4.96179e-19)
(0.0445621 -0.000168414 3.34409e-20)
(0.0450527 -0.000169699 4.6779e-19)
(0.0769882 -0.00024787 5.9369e-21)
(0.0419647 -0.000164431 6.63517e-21)
(0.044222 -0.000158074 -1.62952e-21)
(0.0441507 -0.000161639 -5.84963e-21)
(0.04418 -0.000164179 1.88358e-21)
(0.0441732 -0.000166979 2.72351e-20)
(0.0446608 -0.000168257 -3.73979e-19)
(0.0762948 -0.000237274 1.55324e-18)
(0.0415082 -0.000152112 -3.09629e-20)
(0.0438843 -0.00016051 -9.41205e-19)
(0.0437972 -0.000162796 -3.50959e-19)
(0.0437878 -0.000165556 5.30612e-19)
(0.0442722 -0.000166828 -2.30639e-20)
(0.0759641 -0.000265816 -5.38759e-19)
(0.0411424 -0.000148847 6.93779e-20)
(0.0435143 -0.000159276 -5.21188e-19)
(0.0434214 -0.000161429 4.66841e-19)
(0.0434056 -0.000164145 8.61202e-19)
(0.043887 -0.00016541 -7.37908e-20)
(0.0753084 -0.000249035 -7.19473e-19)
(0.0408025 -0.000148914 4.74644e-20)
(0.0431464 -0.000157898 -6.08007e-20)
(0.0430487 -0.000160078 8.10087e-19)
(0.0430267 -0.000162746 9.20951e-19)
(0.0435051 -0.000164005 2.15256e-20)
(0.0740728 -1.39082e-05 -3.497e-20)
(0.0405422 -0.000174394 2.55779e-21)
(0.042775 -0.000152198 -3.95168e-20)
(0.0426767 -0.000156305 5.71679e-19)
(0.042683 -0.000158656 -4.17486e-20)
(0.0426512 -0.000161272 3.60556e-20)
(0.0431268 -0.000162529 -4.73644e-19)
)
;

boundaryField
{
    inlet
    {
        type            calculated;
        value           nonuniform List<vector> 0();
    }
    outlet2
    {
        type            calculated;
        value           uniform (0 0 0);
    }
    outlet1
    {
        type            calculated;
        value           uniform (0 0 0);
    }
    wall
    {
        type            calculated;
        value           uniform (0 0 0);
    }
    symmetryBottom
    {
        type            symmetry;
    }
    symmetryZ0
    {
        type            symmetry;
    }
    symmetryZ05
    {
        type            symmetry;
    }
    procBoundary0to1
    {
        type            processor;
        value           uniform (0 0 0);
    }
}


// ************************************************************************* //
