/*--------------------------------*- C++ -*----------------------------------*\
| =========                 |                                                 |
| \\      /  F ield         | OpenFOAM: The Open Source CFD Toolbox           |
|  \\    /   O peration     | Version:  2412                                  |
|   \\  /    A nd           | Website:  www.openfoam.com                      |
|    \\/     M anipulation  |                                                 |
\*---------------------------------------------------------------------------*/
FoamFile
{
    version     2.0;
    format      ascii;
    arch        "LSB;label=32;scalar=64";
    class       volScalarField;
    location    "2.6e-06";
    object      E_dof0;
}
// * * * * * * * * * * * * * * * * * * * * * * * * * * * * * * * * * * * * * //

dimensions      [0 0 0 0 0 0 0];

internalField   nonuniform List<scalar> 
84
(
99.4322
61.9654
65.6244
99.4389
61.9775
65.6353
99.4372
61.9762
65.634
99.4372
61.9762
65.634
99.4372
61.9762
65.634
99.4372
61.9762
65.634
99.4372
61.9762
65.634
99.4372
61.9762
65.634
99.4372
61.9762
65.634
99.4372
61.9762
65.634
99.4372
61.9762
65.634
99.4373
61.9731
65.6315
84.7539
83.9068
84.1393
86.8127
85.9011
86.1399
86.6009
85.696
85.9332
86.3897
85.4912
85.5402
83.8327
86.1787
85.2869
85.3326
85.5469
85.9692
85.0839
85.1264
85.3403
85.7645
84.8853
84.9247
85.1383
85.5625
84.6894
84.7258
84.9385
85.3804
84.5122
84.5458
84.555
83.8704
85.1128
84.2548
84.2843
84.2897
84.5033
84.9181
84.0658
84.0924
84.0952
84.3324
84.7153
83.8691
83.8927
84.1041
)
;

boundaryField
{
    inlet
    {
        type            calculated;
        value           uniform 99.4306;
    }
    outlet2
    {
        type            calculated;
        value           uniform 99.4306;
    }
    outlet1
    {
        type            calculated;
        value           nonuniform List<scalar> 0();
    }
    wall
    {
        type            calculated;
        value           uniform 99.4306;
    }
    symmetryBottom
    {
        type            symmetry;
    }
    symmetryZ0
    {
        type            symmetry;
    }
    symmetryZ05
    {
        type            symmetry;
    }
    procBoundary1to0
    {
        type            processor;
        value           uniform 99.4306;
    }
}


// ************************************************************************* //
