/*--------------------------------*- C++ -*----------------------------------*\
| =========                 |                                                 |
| \\      /  F ield         | OpenFOAM: The Open Source CFD Toolbox           |
|  \\    /   O peration     | Version:  2412                                  |
|   \\  /    A nd           | Website:  www.openfoam.com                      |
|    \\/     M anipulation  |                                                 |
\*---------------------------------------------------------------------------*/
FoamFile
{
    version     2.0;
    format      ascii;
    arch        "LSB;label=32;scalar=64";
    class       volScalarField;
    location    "2.6e-06";
    object      rho;
}
// * * * * * * * * * * * * * * * * * * * * * * * * * * * * * * * * * * * * * //

dimensions      [0 0 0 0 0 0 0];

internalField   nonuniform List<scalar> 
84
(
2.8109e-05
1.76288e-05
1.86409e-05
2.81108e-05
1.76322e-05
1.8644e-05
2.81104e-05
1.76319e-05
1.86436e-05
2.81104e-05
1.76319e-05
1.86436e-05
2.81104e-05
1.76319e-05
1.86436e-05
2.81104e-05
1.76319e-05
1.86436e-05
2.81104e-05
1.76319e-05
1.86436e-05
2.81104e-05
1.76319e-05
1.86436e-05
2.81104e-05
1.76319e-05
1.86436e-05
2.81104e-05
1.76319e-05
1.86436e-05
2.81104e-05
1.76318e-05
1.86436e-05
2.81104e-05
1.7631e-05
1.86429e-05
2.40074e-05
2.37728e-05
2.38377e-05
2.45776e-05
2.43254e-05
2.43921e-05
2.45184e-05
2.4268e-05
2.43342e-05
2.44593e-05
2.42107e-05
2.42243e-05
2.37465e-05
2.44003e-05
2.41535e-05
2.41661e-05
2.42261e-05
2.43413e-05
2.40964e-05
2.41081e-05
2.41679e-05
2.42825e-05
2.40393e-05
2.40502e-05
2.41099e-05
2.4224e-05
2.39827e-05
2.39927e-05
2.40521e-05
2.41645e-05
2.3925e-05
2.3934e-05
2.39364e-05
2.37579e-05
2.41084e-05
2.38706e-05
2.38788e-05
2.38804e-05
2.39402e-05
2.40494e-05
2.38134e-05
2.38207e-05
2.38215e-05
2.38879e-05
2.39916e-05
2.37573e-05
2.37638e-05
2.38229e-05
)
;

boundaryField
{
    inlet
    {
        type            calculated;
        value           uniform 0;
    }
    outlet2
    {
        type            calculated;
        value           uniform 0;
    }
    outlet1
    {
        type            calculated;
        value           nonuniform List<scalar> 0();
    }
    wall
    {
        type            calculated;
        value           uniform 0;
    }
    symmetryBottom
    {
        type            symmetry;
    }
    symmetryZ0
    {
        type            symmetry;
    }
    symmetryZ05
    {
        type            symmetry;
    }
    procBoundary1to0
    {
        type            processor;
        value           uniform 0;
    }
}


// ************************************************************************* //
