/*--------------------------------*- C++ -*----------------------------------*\
| =========                 |                                                 |
| \\      /  F ield         | OpenFOAM: The Open Source CFD Toolbox           |
|  \\    /   O peration     | Version:  2412                                  |
|   \\  /    A nd           | Website:  www.openfoam.com                      |
|    \\/     M anipulation  |                                                 |
\*---------------------------------------------------------------------------*/
FoamFile
{
    version     2.0;
    format      ascii;
    arch        "LSB;label=32;scalar=64";
    class       volScalarField;
    location    "8.4e-06";
    object      rho;
}
// * * * * * * * * * * * * * * * * * * * * * * * * * * * * * * * * * * * * * //

dimensions      [0 0 0 0 0 0 0];

internalField   nonuniform List<scalar> 
84
(
2.87795e-05
1.57827e-05
1.66521e-05
1.6618e-05
1.6624e-05
1.66294e-05
1.66224e-05
1.68029e-05
3.06023e-05
1.68054e-05
1.77446e-05
1.77252e-05
1.77489e-05
1.77723e-05
1.77848e-05
1.79741e-05
3.0244e-05
1.68087e-05
1.76094e-05
1.75994e-05
1.76206e-05
1.76423e-05
1.76527e-05
1.7841e-05
2.99488e-05
1.65867e-05
1.7495e-05
1.74733e-05
1.74938e-05
1.75017e-05
1.76889e-05
2.99504e-05
1.64372e-05
1.73527e-05
1.73283e-05
1.73464e-05
1.73517e-05
1.75377e-05
2.97171e-05
1.63044e-05
1.72109e-05
1.71845e-05
1.72003e-05
1.72029e-05
1.73879e-05
2.94825e-05
1.61732e-05
1.70702e-05
1.70418e-05
1.70553e-05
1.70555e-05
1.72393e-05
2.91834e-05
1.60968e-05
1.6926e-05
1.69006e-05
1.69115e-05
1.69093e-05
1.7092e-05
2.89258e-05
1.59259e-05
1.67988e-05
1.67677e-05
1.67643e-05
1.69459e-05
2.8801e-05
1.57884e-05
1.66597e-05
1.66263e-05
1.66206e-05
1.68011e-05
2.8557e-05
1.56602e-05
1.65213e-05
1.64861e-05
1.6478e-05
1.66574e-05
2.80964e-05
1.55613e-05
1.63817e-05
1.63462e-05
1.63485e-05
1.63368e-05
1.65151e-05
)
;

boundaryField
{
    inlet
    {
        type            calculated;
        value           nonuniform List<scalar> 0();
    }
    outlet2
    {
        type            calculated;
        value           uniform 0;
    }
    outlet1
    {
        type            calculated;
        value           uniform 0;
    }
    wall
    {
        type            calculated;
        value           uniform 0;
    }
    symmetryBottom
    {
        type            symmetry;
    }
    symmetryZ0
    {
        type            symmetry;
    }
    symmetryZ05
    {
        type            symmetry;
    }
    procBoundary0to1
    {
        type            processor;
        value           uniform 0;
    }
}


// ************************************************************************* //
