/*--------------------------------*- C++ -*----------------------------------*\
| =========                 |                                                 |
| \\      /  F ield         | OpenFOAM: The Open Source CFD Toolbox           |
|  \\    /   O peration     | Version:  2412                                  |
|   \\  /    A nd           | Website:  www.openfoam.com                      |
|    \\/     M anipulation  |                                                 |
\*---------------------------------------------------------------------------*/
FoamFile
{
    version     2.0;
    format      ascii;
    arch        "LSB;label=32;scalar=64";
    class       volVectorField;
    location    "8.4e-06";
    object      U;
}
// * * * * * * * * * * * * * * * * * * * * * * * * * * * * * * * * * * * * * //

dimensions      [0 0 0 0 0 0 0];

internalField   nonuniform List<vector> 
84
(
(2636.39 -0.144058 1.02587e-14)
(2625.68 -0.170663 -1.06139e-14)
(2627.71 -0.171189 -2.8001e-14)
(2627.58 -0.176493 1.41431e-14)
(2627.59 -0.181757 -1.26099e-15)
(2627.59 -0.187255 -8.12144e-16)
(2627.56 -0.193583 2.49628e-14)
(2627.77 -0.192025 2.93542e-15)
(2637.7 -8.70195 9.34059e-15)
(2627.12 -8.96091 -9.83765e-15)
(2629.14 -9.05726 -3.26474e-14)
(2629.04 -9.19373 6.66438e-15)
(2629.06 -9.33182 -5.70623e-14)
(2629.08 -9.47365 7.13098e-15)
(2629.08 -9.63339 4.56869e-14)
(2629.29 -9.60272 8.27522e-15)
(2637.46 -8.2139 -4.30765e-14)
(2627.29 -9.97235 8.55084e-15)
(2629.01 -9.14236 1.60958e-14)
(2628.94 -9.35652 -1.13407e-15)
(2628.96 -9.4958 -2.89968e-15)
(2628.98 -9.64268 2.47894e-14)
(2628.97 -9.80803 -1.69409e-14)
(2629.18 -9.7763 -2.10412e-14)
(2637.26 -8.0151 -4.29395e-14)
(2626.95 -9.35479 2.79097e-14)
(2628.92 -9.35008 1.67056e-15)
(2628.82 -9.49951 -5.41201e-14)
(2628.84 -9.64617 4.899e-14)
(2628.84 -9.8117 8.90046e-15)
(2629.04 -9.77993 -1.64e-14)
(2637.36 -8.97093 -2.29317e-14)
(2626.77 -9.24278 -8.67464e-15)
(2628.79 -9.3562 6.04514e-16)
(2628.69 -9.50078 9.43058e-16)
(2628.71 -9.64765 -1.74518e-14)
(2628.7 -9.81322 1.06899e-14)
(2628.9 -9.78144 3.1499e-14)
(2637.24 -8.98822 -1.49068e-14)
(2626.64 -9.24223 3.07191e-14)
(2628.66 -9.35764 -4.43657e-15)
(2628.55 -9.50219 3.6465e-14)
(2628.57 -9.6491 -3.31679e-14)
(2628.56 -9.81473 2.91593e-14)
(2628.77 -9.78293 -5.08252e-14)
(2637.12 -8.98593 -1.29019e-15)
(2626.51 -9.24888 2.92022e-14)
(2628.53 -9.35854 -1.89852e-15)
(2628.42 -9.50362 -1.73744e-15)
(2628.44 -9.65055 2.89274e-14)
(2628.42 -9.81624 1.96693e-15)
(2628.63 -9.78442 2.69663e-14)
(2636.93 -8.39651 1.99064e-16)
(2626.51 -10.153 4.01576e-16)
(2628.38 -9.28657 -9.51617e-17)
(2628.29 -9.50863 -3.40212e-16)
(2628.3 -9.65188 1.11033e-16)
(2628.28 -9.81775 1.57797e-15)
(2628.49 -9.78591 -2.17063e-14)
(2636.77 -8.11394 5.30143e-14)
(2626.28 -9.50645 -1.88541e-15)
(2628.27 -9.49993 -5.56364e-14)
(2628.16 -9.65369 -2.07787e-14)
(2628.15 -9.81925 3.14433e-14)
(2628.36 -9.7874 -1.27018e-15)
(2636.75 -9.11846 -1.84775e-14)
(2626.12 -9.38804 4.30028e-15)
(2628.14 -9.50635 -3.10673e-14)
(2628.03 -9.65498 2.79327e-14)
(2628.01 -9.82077 5.14761e-14)
(2628.22 -9.7889 -4.30372e-15)
(2636.61 -8.62173 -2.48835e-14)
(2625.99 -9.46769 2.95984e-15)
(2628.01 -9.50411 -3.60821e-15)
(2627.89 -9.65657 4.88449e-14)
(2627.87 -9.82228 5.55175e-14)
(2628.08 -9.79039 1.29328e-15)
(2636.38 -0.484414 -1.21952e-15)
(2625.93 -11.1274 1.58707e-16)
(2627.87 -9.24316 -2.36439e-15)
(2627.75 -9.51029 3.47267e-14)
(2627.76 -9.65218 -2.50295e-15)
(2627.73 -9.81836 2.1622e-15)
(2627.95 -9.78679 -2.84998e-14)
)
;

boundaryField
{
    inlet
    {
        type            calculated;
        value           nonuniform List<vector> 0();
    }
    outlet2
    {
        type            calculated;
        value           uniform (0 0 0);
    }
    outlet1
    {
        type            calculated;
        value           uniform (0 0 0);
    }
    wall
    {
        type            calculated;
        value           uniform (0 0 0);
    }
    symmetryBottom
    {
        type            symmetry;
    }
    symmetryZ0
    {
        type            symmetry;
    }
    symmetryZ05
    {
        type            symmetry;
    }
    procBoundary0to1
    {
        type            processor;
        value           uniform (0 0 0);
    }
}


// ************************************************************************* //
