/*--------------------------------*- C++ -*----------------------------------*\
| =========                 |                                                 |
| \\      /  F ield         | OpenFOAM: The Open Source CFD Toolbox           |
|  \\    /   O peration     | Version:  2412                                  |
|   \\  /    A nd           | Website:  www.openfoam.com                      |
|    \\/     M anipulation  |                                                 |
\*---------------------------------------------------------------------------*/
FoamFile
{
    version     2.0;
    format      ascii;
    arch        "LSB;label=32;scalar=64";
    class       volVectorField;
    location    "2.9e-06";
    object      rhoU_dof0;
}
// * * * * * * * * * * * * * * * * * * * * * * * * * * * * * * * * * * * * * //

dimensions      [0 0 0 0 0 0 0];

internalField   nonuniform List<vector> 
84
(
(0.073757 8.4947e-05 8.6666e-20)
(0.0608337 7.1444e-05 -8.73939e-20)
(0.0614344 7.31658e-05 -2.01497e-19)
(0.0614174 7.42309e-05 9.46749e-20)
(0.0614188 7.5349e-05 -4.72529e-21)
(0.0614198 7.65008e-05 1.12908e-20)
(0.0614209 7.76883e-05 1.8769e-19)
(0.061613 7.78704e-05 4.17538e-20)
(0.0757436 -8.77385e-05 9.10794e-20)
(0.0625083 -7.44765e-05 -8.50874e-20)
(0.0631492 -7.623e-05 -2.433e-19)
(0.0631577 -7.7393e-05 1.40688e-20)
(0.0631859 -7.86101e-05 -4.32148e-19)
(0.0632146 -7.98656e-05 6.58135e-20)
(0.0632443 -8.11619e-05 3.50816e-19)
(0.0634405 -8.13391e-05 7.30376e-20)
(0.0754518 -8.31075e-05 -4.08517e-19)
(0.0624115 -7.79149e-05 6.18506e-20)
(0.0629675 -7.58276e-05 1.2351e-19)
(0.0629779 -7.7195e-05 -7.19122e-21)
(0.0630031 -7.83991e-05 -3.46069e-21)
(0.0630289 -7.96482e-05 1.75254e-19)
(0.0630555 -8.09375e-05 -1.39404e-19)
(0.0632514 -8.11143e-05 -1.75976e-19)
(0.0752882 -8.51238e-05 -4.02799e-19)
(0.0621848 -7.52969e-05 1.85573e-19)
(0.0628166 -7.70009e-05 -9.68657e-21)
(0.0628204 -7.81888e-05 -3.89206e-19)
(0.0628437 -7.94313e-05 3.66069e-19)
(0.0628673 -8.07137e-05 7.5689e-20)
(0.0630627 -8.08902e-05 -1.39344e-19)
(0.0751557 -8.84252e-05 -2.19655e-19)
(0.0620076 -7.50054e-05 -7.41181e-20)
(0.0626374 -7.68096e-05 3.65335e-21)
(0.0626384 -7.79893e-05 1.09441e-21)
(0.0626588 -7.92256e-05 -1.26544e-19)
(0.0626794 -8.05014e-05 9.71464e-20)
(0.0628745 -8.06777e-05 2.55844e-19)
(0.0749485 -8.43259e-05 -1.34056e-19)
(0.0618324 -7.14565e-05 2.17051e-19)
(0.0624579 -7.31898e-05 -1.0023e-20)
(0.0624562 -7.43213e-05 2.57803e-19)
(0.0624737 -7.55075e-05 -2.28277e-19)
(0.0624914 -7.67319e-05 1.945e-19)
(0.062686 -7.6901e-05 -4.21019e-19)
(0.0747402 -6.78155e-05 -2.77175e-23)
(0.0616568 -5.74447e-05 2.11913e-19)
(0.0622779 -5.88255e-05 -9.86928e-21)
(0.0622734 -5.97325e-05 -3.85731e-22)
(0.062288 -6.06826e-05 2.1613e-19)
(0.0623026 -6.16632e-05 3.28811e-20)
(0.0624968 -6.18e-05 2.26526e-19)
(0.0744882 -5.36275e-05 1.48045e-21)
(0.0615258 -5.13589e-05 1.01122e-21)
(0.0620978 -4.95131e-05 -7.26515e-22)
(0.0620931 -5.04473e-05 -1.30425e-21)
(0.0621048 -5.1247e-05 -2.19755e-22)
(0.0621165 -5.20778e-05 4.1725e-22)
(0.0623102 -5.2194e-05 -1.80883e-19)
(0.0742955 -5.03267e-05 4.81752e-19)
(0.0613147 -4.42955e-05 -2.18117e-20)
(0.0619264 -4.53239e-05 -4.29125e-19)
(0.0619166 -4.60264e-05 -1.57878e-19)
(0.0619256 -4.67624e-05 2.28793e-19)
(0.062119 -4.6868e-05 -1.40078e-22)
(0.0741396 -5.19594e-05 -1.68763e-19)
(0.0611483 -4.38643e-05 7.7907e-21)
(0.0617574 -4.4932e-05 -2.13757e-19)
(0.0617452 -4.56129e-05 2.19947e-19)
(0.0617516 -4.63274e-05 3.73231e-19)
(0.0619445 -4.64333e-05 -1.91098e-20)
(0.0739077 -5.64303e-05 -2.28274e-19)
(0.0609722 -4.94392e-05 1.04013e-20)
(0.0615756 -5.05251e-05 -6.8276e-23)
(0.0615605 -5.12986e-05 3.79407e-19)
(0.061564 -5.21063e-05 4.06987e-19)
(0.0617564 -5.22251e-05 2.64116e-20)
(0.0735065 -4.28808e-06 -9.36333e-21)
(0.0608233 -6.22287e-05 2.75975e-22)
(0.0613971 -5.94221e-05 -5.88358e-24)
(0.0613806 -6.04704e-05 2.4249e-19)
(0.0613812 -6.14002e-05 -1.19182e-20)
(0.0613814 -6.23631e-05 3.59039e-22)
(0.0615735 -6.25072e-05 -2.22608e-19)
)
;

boundaryField
{
    inlet
    {
        type            calculated;
        value           nonuniform List<vector> 0();
    }
    outlet2
    {
        type            calculated;
        value           uniform (0.0741049 0 0);
    }
    outlet1
    {
        type            calculated;
        value           uniform (0.0741049 0 0);
    }
    wall
    {
        type            calculated;
        value           uniform (0.0741049 0 0);
    }
    symmetryBottom
    {
        type            symmetry;
    }
    symmetryZ0
    {
        type            symmetry;
    }
    symmetryZ05
    {
        type            symmetry;
    }
    procBoundary0to1
    {
        type            processor;
        value           uniform (0.0741049 0 0);
    }
}


// ************************************************************************* //
