/*--------------------------------*- C++ -*----------------------------------*\
| =========                 |                                                 |
| \\      /  F ield         | OpenFOAM: The Open Source CFD Toolbox           |
|  \\    /   O peration     | Version:  2412                                  |
|   \\  /    A nd           | Website:  www.openfoam.com                      |
|    \\/     M anipulation  |                                                 |
\*---------------------------------------------------------------------------*/
FoamFile
{
    version     2.0;
    format      ascii;
    arch        "LSB;label=32;scalar=64";
    class       volVectorField;
    location    "2.9e-06";
    object      U;
}
// * * * * * * * * * * * * * * * * * * * * * * * * * * * * * * * * * * * * * //

dimensions      [0 0 0 0 0 0 0];

internalField   nonuniform List<vector> 
84
(
(2635.64 3.03551 3.09694e-15)
(2632.54 3.09169 -3.78191e-15)
(2632.85 3.13562 -8.63542e-15)
(2632.83 3.18212 4.05851e-15)
(2632.82 3.22997 -2.02558e-16)
(2632.81 3.27927 4.83991e-16)
(2632.8 3.33011 8.04532e-15)
(2632.86 3.32757 1.78423e-15)
(2636.62 -3.05415 3.17045e-15)
(2633.55 -3.13779 -3.58484e-15)
(2633.88 -3.17946 -1.01478e-14)
(2633.87 -3.22753 5.86711e-16)
(2633.88 -3.27682 -1.80139e-14)
(2633.88 -3.32766 2.74217e-15)
(2633.89 -3.3801 1.46102e-14)
(2633.94 -3.37706 3.0324e-15)
(2636.54 -2.90406 -1.4275e-14)
(2633.55 -3.28774 2.60988e-15)
(2633.83 -3.17174 5.16624e-15)
(2633.82 -3.2284 -3.00747e-16)
(2633.83 -3.27746 -1.44673e-16)
(2633.84 -3.32832 7.32348e-15)
(2633.84 -3.38078 -5.82295e-15)
(2633.9 -3.37774 -7.32794e-15)
(2636.51 -2.98094 -1.41056e-14)
(2633.47 -3.18875 7.85883e-15)
(2633.79 -3.22852 -4.06142e-16)
(2633.79 -3.27811 -1.63177e-14)
(2633.79 -3.32898 1.5342e-14)
(2633.8 -3.38146 3.17096e-15)
(2633.85 -3.37842 -5.81979e-15)
(2636.49 -3.10199 -7.70559e-15)
(2633.42 -3.18544 -3.14775e-15)
(2633.75 -3.22966 1.53615e-16)
(2633.74 -3.27919 4.60163e-17)
(2633.74 -3.3301 -5.31905e-15)
(2633.75 -3.38262 4.08203e-15)
(2633.8 -3.37957 1.07172e-14)
(2636.44 -2.9663 -4.71564e-15)
(2633.36 -3.04324 9.24392e-15)
(2633.69 -3.08622 -4.22643e-16)
(2633.68 -3.13401 1.08711e-14)
(2633.68 -3.18314 -9.6234e-15)
(2633.69 -3.23385 8.19716e-15)
(2633.74 -3.23098 -1.7689e-14)
(2636.35 -2.39209 -9.77692e-19)
(2633.26 -2.45337 9.05045e-15)
(2633.58 -2.48759 -4.17349e-16)
(2633.57 -2.52612 -1.63127e-17)
(2633.58 -2.5657 9.13811e-15)
(2633.58 -2.60655 1.38991e-15)
(2633.63 -2.60427 9.54586e-15)
(2636.27 -1.89798 5.23957e-17)
(2633.21 -2.19808 4.32788e-17)
(2633.51 -2.09981 -3.08109e-17)
(2633.5 -2.13958 -5.5316e-17)
(2633.5 -2.17309 -9.31853e-18)
(2633.5 -2.2079 1.76898e-17)
(2633.56 -2.20599 -7.64508e-15)
(2636.22 -1.78573 1.70939e-14)
(2633.11 -1.90224 -9.36687e-16)
(2633.44 -1.92741 -1.82487e-14)
(2633.42 -1.95759 -6.71484e-15)
(2633.42 -1.9886 9.72956e-15)
(2633.48 -1.98693 -5.93847e-18)
(2636.23 -1.84755 -6.00082e-15)
(2633.17 -1.88888 3.35483e-16)
(2633.49 -1.91601 -9.11514e-15)
(2633.48 -1.94542 9.38089e-15)
(2633.48 -1.97569 1.59169e-14)
(2633.53 -1.97408 -8.1244e-16)
(2636.21 -2.01281 -8.14226e-15)
(2633.13 -2.13507 4.49189e-16)
(2633.45 -2.16085 -2.92001e-18)
(2633.44 -2.19445 1.62303e-14)
(2633.44 -2.22888 1.74091e-14)
(2633.49 -2.22704 1.12627e-15)
(2636.15 -0.153783 -3.35796e-16)
(2633.11 -2.69395 1.19472e-17)
(2633.42 -2.54871 -2.52356e-19)
(2633.41 -2.59436 1.04036e-14)
(2633.41 -2.63423 -5.11321e-16)
(2633.41 -2.67553 1.54036e-17)
(2633.46 -2.67339 -9.5208e-15)
)
;

boundaryField
{
    inlet
    {
        type            calculated;
        value           nonuniform List<vector> 0();
    }
    outlet2
    {
        type            calculated;
        value           uniform (0 0 0);
    }
    outlet1
    {
        type            calculated;
        value           uniform (0 0 0);
    }
    wall
    {
        type            calculated;
        value           uniform (0 0 0);
    }
    symmetryBottom
    {
        type            symmetry;
    }
    symmetryZ0
    {
        type            symmetry;
    }
    symmetryZ05
    {
        type            symmetry;
    }
    procBoundary0to1
    {
        type            processor;
        value           uniform (0 0 0);
    }
}


// ************************************************************************* //
