/*--------------------------------*- C++ -*----------------------------------*\
| =========                 |                                                 |
| \\      /  F ield         | OpenFOAM: The Open Source CFD Toolbox           |
|  \\    /   O peration     | Version:  2412                                  |
|   \\  /    A nd           | Website:  www.openfoam.com                      |
|    \\/     M anipulation  |                                                 |
\*---------------------------------------------------------------------------*/
FoamFile
{
    version     2.0;
    format      ascii;
    arch        "LSB;label=32;scalar=64";
    class       volScalarField;
    location    "7.9e-06";
    object      rho_dof0;
}
// * * * * * * * * * * * * * * * * * * * * * * * * * * * * * * * * * * * * * //

dimensions      [0 0 0 0 0 0 0];

internalField   nonuniform List<scalar> 
84
(
2.6973e-05
1.56082e-05
1.70683e-05
1.69461e-05
1.69558e-05
1.69573e-05
1.69593e-05
1.71152e-05
2.89329e-05
1.67725e-05
1.83536e-05
1.82426e-05
1.82731e-05
1.82954e-05
1.8319e-05
1.84844e-05
2.85136e-05
1.68571e-05
1.8181e-05
1.81055e-05
1.81303e-05
1.81505e-05
1.81716e-05
1.8336e-05
2.83701e-05
1.65484e-05
1.80936e-05
1.79807e-05
1.80071e-05
1.80253e-05
1.81887e-05
2.83322e-05
1.64073e-05
1.79552e-05
1.784e-05
1.7864e-05
1.78799e-05
1.80423e-05
2.81205e-05
1.62814e-05
1.78159e-05
1.76994e-05
1.7721e-05
1.77345e-05
1.78959e-05
2.79075e-05
1.61576e-05
1.76768e-05
1.75593e-05
1.75786e-05
1.75896e-05
1.77501e-05
2.75915e-05
1.61524e-05
1.7523e-05
1.74247e-05
1.74398e-05
1.74487e-05
1.76082e-05
2.73974e-05
1.59178e-05
1.74021e-05
1.72826e-05
1.72971e-05
1.74552e-05
2.73118e-05
1.58007e-05
1.72842e-05
1.71632e-05
1.71761e-05
1.73333e-05
2.70431e-05
1.56816e-05
1.71408e-05
1.70194e-05
1.70297e-05
1.71859e-05
2.66568e-05
1.56183e-05
1.70012e-05
1.68874e-05
1.68949e-05
1.6895e-05
1.70507e-05
)
;

boundaryField
{
    inlet
    {
        type            calculated;
        value           nonuniform List<scalar> 0();
    }
    outlet2
    {
        type            calculated;
        value           uniform 2.81085e-05;
    }
    outlet1
    {
        type            calculated;
        value           uniform 2.81085e-05;
    }
    wall
    {
        type            calculated;
        value           uniform 2.81085e-05;
    }
    symmetryBottom
    {
        type            symmetry;
    }
    symmetryZ0
    {
        type            symmetry;
    }
    symmetryZ05
    {
        type            symmetry;
    }
    procBoundary0to1
    {
        type            processor;
        value           uniform 2.81085e-05;
    }
}


// ************************************************************************* //
