/*--------------------------------*- C++ -*----------------------------------*\
| =========                 |                                                 |
| \\      /  F ield         | OpenFOAM: The Open Source CFD Toolbox           |
|  \\    /   O peration     | Version:  2412                                  |
|   \\  /    A nd           | Website:  www.openfoam.com                      |
|    \\/     M anipulation  |                                                 |
\*---------------------------------------------------------------------------*/
FoamFile
{
    version     2.0;
    format      ascii;
    arch        "LSB;label=32;scalar=64";
    class       volVectorField;
    location    "7.9e-06";
    object      rhoU;
}
// * * * * * * * * * * * * * * * * * * * * * * * * * * * * * * * * * * * * * //

dimensions      [0 0 0 0 0 0 0];

internalField   nonuniform List<vector> 
84
(
(0.0710348 0.000215461 2.24562e-19)
(0.0409517 0.000127026 -2.07768e-19)
(0.0448394 0.00014069 -3.18634e-19)
(0.0445116 0.000141689 2.09501e-19)
(0.0445371 0.000143818 -4.0978e-20)
(0.0445406 0.00014594 3.0255e-20)
(0.0445454 0.000148129 3.05565e-19)
(0.0449579 0.000149187 2.57691e-20)
(0.0762721 -0.000239807 2.17531e-19)
(0.044054 -0.00014446 -2.06473e-19)
(0.0482672 -0.000158791 -4.26936e-19)
(0.047969 -0.000160413 6.84281e-20)
(0.0480499 -0.000163117 -7.99041e-19)
(0.0481091 -0.000165851 2.17024e-19)
(0.0481715 -0.000168682 6.4746e-19)
(0.0486092 -0.000169805 1.08505e-19)
(0.075158 -0.000209547 -8.55242e-19)
(0.0442823 -0.000170523 1.87763e-19)
(0.0478095 -0.000153317 2.19798e-19)
(0.0476065 -0.000159607 -3.79557e-20)
(0.0476722 -0.00016185 -1.36308e-20)
(0.0477257 -0.000164571 3.08295e-19)
(0.0477814 -0.000167358 -2.66512e-19)
(0.0482166 -0.000168476 -2.87118e-19)
(0.0747776 -0.000218606 -8.10336e-19)
(0.0434622 -0.000145877 3.78015e-19)
(0.0475792 -0.000158951 -5.40801e-20)
(0.0472762 -0.000160586 -7.06639e-19)
(0.0473463 -0.000163303 7.28547e-19)
(0.0473945 -0.000166046 1.01685e-19)
(0.047827 -0.000167158 -2.67136e-19)
(0.0746792 -0.000239084 -4.63623e-19)
(0.0430888 -0.000142951 -1.09957e-19)
(0.0472132 -0.000157943 1.79085e-20)
(0.0469041 -0.000159421 5.4091e-21)
(0.046968 -0.000162107 -2.33555e-19)
(0.0470098 -0.00016481 2.1338e-19)
(0.0474398 -0.000165916 4.55577e-19)
(0.0741172 -0.000230857 -3.19621e-19)
(0.0427554 -0.000137695 3.91697e-19)
(0.046844 -0.000152301 -5.64557e-20)
(0.0465314 -0.000153764 4.61243e-19)
(0.046589 -0.000156407 -4.37159e-19)
(0.0466245 -0.000159069 3.64138e-19)
(0.0470518 -0.000160137 -7.60432e-19)
(0.0735486 -0.000184146 -1.37888e-22)
(0.0424244 -0.000110295 3.50158e-19)
(0.0464725 -0.000121584 -5.29098e-20)
(0.0461572 -0.000122792 3.30493e-21)
(0.0462084 -0.000124876 3.77067e-19)
(0.0462375 -0.000126981 3.40157e-20)
(0.0466621 -0.000127838 3.71923e-19)
(0.0727089 -0.000131986 9.75345e-21)
(0.0424103 -0.000115173 7.91215e-21)
(0.0460632 -0.00010001 -2.80676e-21)
(0.0457991 -0.000104782 -7.11919e-21)
(0.0458393 -0.000106241 -1.26297e-21)
(0.0458627 -0.000108075 3.60961e-21)
(0.0462848 -0.0001088 -2.86893e-19)
(0.07219 -0.000126475 1.1829e-18)
(0.0417837 -8.4089e-05 -1.44669e-19)
(0.0457391 -9.17841e-05 -7.82448e-19)
(0.0454182 -9.26905e-05 -2.05284e-19)
(0.0454568 -9.42439e-05 4.43318e-19)
(0.0458751 -9.48858e-05 -7.32623e-20)
(0.0719703 -0.000133833 -4.05145e-19)
(0.0414872 -7.94756e-05 5.13885e-20)
(0.0454384 -8.78867e-05 -3.59278e-19)
(0.0451141 -8.86027e-05 4.11576e-19)
(0.0451486 -9.0004e-05 6.59363e-19)
(0.0455645 -9.06308e-05 -9.31008e-20)
(0.0712603 -0.000138396 -4.86338e-19)
(0.0411712 -9.2582e-05 6.7831e-20)
(0.0450583 -9.96674e-05 -4.61003e-21)
(0.0447329 -0.000100739 6.89146e-19)
(0.0447606 -0.000102347 6.83328e-19)
(0.0451739 -0.000103056 8.01367e-21)
(0.0702387 -2.54344e-05 -4.79756e-20)
(0.0410041 -0.000131571 4.47579e-21)
(0.0446898 -0.000114153 -2.93976e-22)
(0.0443846 -0.000118099 4.29559e-19)
(0.0444047 -0.000119725 -6.28984e-20)
(0.0444049 -0.000121592 5.71456e-21)
(0.0448169 -0.000122443 -3.47317e-19)
)
;

boundaryField
{
    inlet
    {
        type            calculated;
        value           nonuniform List<vector> 0();
    }
    outlet2
    {
        type            calculated;
        value           uniform (0 0 0);
    }
    outlet1
    {
        type            calculated;
        value           uniform (0 0 0);
    }
    wall
    {
        type            calculated;
        value           uniform (0 0 0);
    }
    symmetryBottom
    {
        type            symmetry;
    }
    symmetryZ0
    {
        type            symmetry;
    }
    symmetryZ05
    {
        type            symmetry;
    }
    procBoundary0to1
    {
        type            processor;
        value           uniform (0 0 0);
    }
}


// ************************************************************************* //
