/*--------------------------------*- C++ -*----------------------------------*\
| =========                 |                                                 |
| \\      /  F ield         | OpenFOAM: The Open Source CFD Toolbox           |
|  \\    /   O peration     | Version:  2412                                  |
|   \\  /    A nd           | Website:  www.openfoam.com                      |
|    \\/     M anipulation  |                                                 |
\*---------------------------------------------------------------------------*/
FoamFile
{
    version     2.0;
    format      ascii;
    arch        "LSB;label=32;scalar=64";
    class       volScalarField;
    location    "7.1e-06";
    object      E;
}
// * * * * * * * * * * * * * * * * * * * * * * * * * * * * * * * * * * * * * //

dimensions      [0 0 0 0 0 0 0];

internalField   nonuniform List<scalar> 
84
(
96.0309
58.671
63.0299
62.6991
62.7233
62.7276
62.7331
63.2516
102.44
62.6916
67.3928
67.108
67.202
67.2772
67.3558
67.903
101.136
62.8838
66.8384
66.6462
66.7244
66.7921
66.8625
67.4068
100.662
61.9219
66.5236
66.2309
66.3114
66.3728
66.9141
100.502
61.452
66.0599
65.7595
65.8322
65.8856
66.424
99.8227
61.025
65.5957
65.29
65.3549
65.4003
65.9357
99.1558
60.6113
65.1415
64.8314
64.8886
64.9262
65.4587
98.1824
60.5497
64.652
64.3909
64.4364
64.467
64.9967
97.6486
59.8684
64.3097
63.9917
64.0353
64.5615
97.1278
59.3409
63.7629
63.4383
63.4734
63.9959
96.3296
58.9581
63.3179
62.9904
63.0177
63.5375
95.0946
58.7219
62.8613
62.5523
62.5708
62.5713
63.0893
)
;

boundaryField
{
    inlet
    {
        type            calculated;
        value           nonuniform List<scalar> 0();
    }
    outlet2
    {
        type            calculated;
        value           uniform 0;
    }
    outlet1
    {
        type            calculated;
        value           uniform 0;
    }
    wall
    {
        type            calculated;
        value           uniform 0;
    }
    symmetryBottom
    {
        type            symmetry;
    }
    symmetryZ0
    {
        type            symmetry;
    }
    symmetryZ05
    {
        type            symmetry;
    }
    procBoundary0to1
    {
        type            processor;
        value           uniform 0;
    }
}


// ************************************************************************* //
