/*--------------------------------*- C++ -*----------------------------------*\
| =========                 |                                                 |
| \\      /  F ield         | OpenFOAM: The Open Source CFD Toolbox           |
|  \\    /   O peration     | Version:  2412                                  |
|   \\  /    A nd           | Website:  www.openfoam.com                      |
|    \\/     M anipulation  |                                                 |
\*---------------------------------------------------------------------------*/
FoamFile
{
    version     2.0;
    format      ascii;
    arch        "LSB;label=32;scalar=64";
    class       volScalarField;
    location    "7.1e-06";
    object      rho_dof0;
}
// * * * * * * * * * * * * * * * * * * * * * * * * * * * * * * * * * * * * * //

dimensions      [0 0 0 0 0 0 0];

internalField   nonuniform List<scalar> 
84
(
2.71865e-05
1.67161e-05
1.79237e-05
1.78334e-05
1.78402e-05
1.78416e-05
1.78433e-05
1.79888e-05
2.8961e-05
1.78349e-05
1.9136e-05
1.90586e-05
1.90848e-05
1.91059e-05
1.9128e-05
1.92813e-05
2.85981e-05
1.78861e-05
1.89811e-05
1.89289e-05
1.89507e-05
1.89698e-05
1.89895e-05
1.91421e-05
2.84656e-05
1.76183e-05
1.88921e-05
1.88124e-05
1.88348e-05
1.8852e-05
1.90038e-05
2.84194e-05
1.74864e-05
1.87619e-05
1.86801e-05
1.87003e-05
1.87153e-05
1.88662e-05
2.82287e-05
1.7366e-05
1.86311e-05
1.85478e-05
1.85658e-05
1.85786e-05
1.87287e-05
2.8037e-05
1.7247e-05
1.85006e-05
1.8416e-05
1.84318e-05
1.84423e-05
1.85916e-05
2.77593e-05
1.72251e-05
1.83596e-05
1.82884e-05
1.83009e-05
1.83094e-05
1.84578e-05
2.75842e-05
1.70162e-05
1.82432e-05
1.8156e-05
1.81675e-05
1.83148e-05
2.74974e-05
1.69041e-05
1.81301e-05
1.80414e-05
1.80513e-05
1.81979e-05
2.72588e-05
1.67882e-05
1.79959e-05
1.79063e-05
1.79138e-05
1.80596e-05
2.69077e-05
1.672e-05
1.78654e-05
1.77809e-05
1.7786e-05
1.77862e-05
1.79315e-05
)
;

boundaryField
{
    inlet
    {
        type            calculated;
        value           nonuniform List<scalar> 0();
    }
    outlet2
    {
        type            calculated;
        value           uniform 2.81085e-05;
    }
    outlet1
    {
        type            calculated;
        value           uniform 2.81085e-05;
    }
    wall
    {
        type            calculated;
        value           uniform 2.81085e-05;
    }
    symmetryBottom
    {
        type            symmetry;
    }
    symmetryZ0
    {
        type            symmetry;
    }
    symmetryZ05
    {
        type            symmetry;
    }
    procBoundary0to1
    {
        type            processor;
        value           uniform 2.81085e-05;
    }
}


// ************************************************************************* //
