/*--------------------------------*- C++ -*----------------------------------*\
| =========                 |                                                 |
| \\      /  F ield         | OpenFOAM: The Open Source CFD Toolbox           |
|  \\    /   O peration     | Version:  2412                                  |
|   \\  /    A nd           | Website:  www.openfoam.com                      |
|    \\/     M anipulation  |                                                 |
\*---------------------------------------------------------------------------*/
FoamFile
{
    version     2.0;
    format      ascii;
    arch        "LSB;label=32;scalar=64";
    class       volScalarField;
    location    "7.1e-06";
    object      T;
}
// * * * * * * * * * * * * * * * * * * * * * * * * * * * * * * * * * * * * * //

dimensions      [0 0 0 0 0 0 0];

internalField   nonuniform List<scalar> 
84
(
204.316
204.359
204.513
204.567
204.639
204.712
204.787
204.778
199.971
199.922
200.01
199.996
199.997
199.997
199.997
199.998
199.944
199.923
200.008
199.996
199.997
199.997
199.997
199.997
199.982
199.917
200.01
199.995
199.997
199.997
199.998
199.981
199.923
200.017
200.002
200.004
200.004
200.005
200.549
200.543
200.629
200.619
200.624
200.628
200.627
203.823
203.935
204.056
204.105
204.169
204.234
204.225
206.695
207.271
207.271
207.396
207.514
207.636
207.619
218.64
221.832
221.84
222.264
222.683
222.617
192.171
191.984
191.958
191.81
191.675
191.692
197.975
198.045
198.077
198.032
198
198.005
199.784
199.074
199.216
199.185
199.173
199.159
199.162
)
;

boundaryField
{
    inlet
    {
        type            calculated;
        value           nonuniform List<scalar> 0();
    }
    outlet2
    {
        type            calculated;
        value           uniform 0;
    }
    outlet1
    {
        type            calculated;
        value           uniform 0;
    }
    wall
    {
        type            calculated;
        value           uniform 0;
    }
    symmetryBottom
    {
        type            symmetry;
    }
    symmetryZ0
    {
        type            symmetry;
    }
    symmetryZ05
    {
        type            symmetry;
    }
    procBoundary0to1
    {
        type            processor;
        value           uniform 0;
    }
}


// ************************************************************************* //
