/*--------------------------------*- C++ -*----------------------------------*\
| =========                 |                                                 |
| \\      /  F ield         | OpenFOAM: The Open Source CFD Toolbox           |
|  \\    /   O peration     | Version:  2412                                  |
|   \\  /    A nd           | Website:  www.openfoam.com                      |
|    \\/     M anipulation  |                                                 |
\*---------------------------------------------------------------------------*/
FoamFile
{
    version     2.0;
    format      ascii;
    arch        "LSB;label=32;scalar=64";
    class       volScalarField;
    location    "2.3e-06";
    object      E;
}
// * * * * * * * * * * * * * * * * * * * * * * * * * * * * * * * * * * * * * //

dimensions      [0 0 0 0 0 0 0];

internalField   nonuniform List<scalar> 
84
(
99.1726
85.0816
85.5992
85.588
85.5891
85.59
85.591
85.8025
101.306
86.9517
87.5076
87.525
87.5559
87.5876
87.6202
87.8354
101.012
86.8235
87.3086
87.326
87.3537
87.3822
87.4115
87.6263
100.834
86.5918
87.1396
87.1517
87.1772
87.2033
87.4177
100.678
86.3959
86.9412
86.9503
86.9726
86.9954
87.2094
100.458
86.2029
86.7442
86.7503
86.7694
86.7889
87.0026
100.243
86.0143
86.5516
86.5546
86.5707
86.587
86.8003
99.9909
85.8635
86.3598
86.3616
86.3746
86.3878
86.6007
99.8159
85.6698
86.1994
86.1972
86.2077
86.4204
99.5674
85.4196
85.9448
85.9388
85.9453
86.1574
99.3414
85.238
85.7586
85.7496
85.7531
85.9649
98.9146
85.0686
85.5636
85.5525
85.5528
85.553
85.7645
)
;

boundaryField
{
    inlet
    {
        type            calculated;
        value           nonuniform List<scalar> 0();
    }
    outlet2
    {
        type            calculated;
        value           uniform 0;
    }
    outlet1
    {
        type            calculated;
        value           uniform 0;
    }
    wall
    {
        type            calculated;
        value           uniform 0;
    }
    symmetryBottom
    {
        type            symmetry;
    }
    symmetryZ0
    {
        type            symmetry;
    }
    symmetryZ05
    {
        type            symmetry;
    }
    procBoundary0to1
    {
        type            processor;
        value           uniform 0;
    }
}


// ************************************************************************* //
