/*--------------------------------*- C++ -*----------------------------------*\
| =========                 |                                                 |
| \\      /  F ield         | OpenFOAM: The Open Source CFD Toolbox           |
|  \\    /   O peration     | Version:  2412                                  |
|   \\  /    A nd           | Website:  www.openfoam.com                      |
|    \\/     M anipulation  |                                                 |
\*---------------------------------------------------------------------------*/
FoamFile
{
    version     2.0;
    format      ascii;
    arch        "LSB;label=32;scalar=64";
    class       volScalarField;
    location    "2.3e-06";
    object      rho;
}
// * * * * * * * * * * * * * * * * * * * * * * * * * * * * * * * * * * * * * //

dimensions      [0 0 0 0 0 0 0];

internalField   nonuniform List<scalar> 
84
(
2.80437e-05
2.41028e-05
2.4246e-05
2.4243e-05
2.42434e-05
2.42438e-05
2.42441e-05
2.43033e-05
2.8634e-05
2.4621e-05
2.47747e-05
2.47797e-05
2.47883e-05
2.47972e-05
2.48063e-05
2.48665e-05
2.85521e-05
2.45849e-05
2.47191e-05
2.4724e-05
2.47318e-05
2.47397e-05
2.47479e-05
2.4808e-05
2.85024e-05
2.45203e-05
2.46718e-05
2.46753e-05
2.46824e-05
2.46897e-05
2.47496e-05
2.84585e-05
2.44655e-05
2.46163e-05
2.46189e-05
2.46251e-05
2.46315e-05
2.46914e-05
2.83968e-05
2.44111e-05
2.45608e-05
2.45626e-05
2.45679e-05
2.45734e-05
2.46331e-05
2.8335e-05
2.4357e-05
2.45055e-05
2.45064e-05
2.45108e-05
2.45154e-05
2.4575e-05
2.82626e-05
2.4313e-05
2.44501e-05
2.44506e-05
2.44541e-05
2.44578e-05
2.45173e-05
2.82051e-05
2.42509e-05
2.43971e-05
2.43963e-05
2.43991e-05
2.44586e-05
2.8155e-05
2.4198e-05
2.43433e-05
2.43418e-05
2.43437e-05
2.44031e-05
2.8087e-05
2.4143e-05
2.4287e-05
2.42846e-05
2.42856e-05
2.43448e-05
2.79658e-05
2.40947e-05
2.42314e-05
2.42284e-05
2.42285e-05
2.42285e-05
2.42877e-05
)
;

boundaryField
{
    inlet
    {
        type            calculated;
        value           nonuniform List<scalar> 0();
    }
    outlet2
    {
        type            calculated;
        value           uniform 0;
    }
    outlet1
    {
        type            calculated;
        value           uniform 0;
    }
    wall
    {
        type            calculated;
        value           uniform 0;
    }
    symmetryBottom
    {
        type            symmetry;
    }
    symmetryZ0
    {
        type            symmetry;
    }
    symmetryZ05
    {
        type            symmetry;
    }
    procBoundary0to1
    {
        type            processor;
        value           uniform 0;
    }
}


// ************************************************************************* //
