/*--------------------------------*- C++ -*----------------------------------*\
| =========                 |                                                 |
| \\      /  F ield         | OpenFOAM: The Open Source CFD Toolbox           |
|  \\    /   O peration     | Version:  2412                                  |
|   \\  /    A nd           | Website:  www.openfoam.com                      |
|    \\/     M anipulation  |                                                 |
\*---------------------------------------------------------------------------*/
FoamFile
{
    version     2.0;
    format      ascii;
    arch        "LSB;label=32;scalar=64";
    class       volScalarField;
    location    "7.6e-06";
    object      E_dof0;
}
// * * * * * * * * * * * * * * * * * * * * * * * * * * * * * * * * * * * * * //

dimensions      [0 0 0 0 0 0 0];

internalField   nonuniform List<scalar> 
84
(
99.4421
8.6778
33.3975
99.4873
8.70266
33.4254
99.4758
8.69977
33.4197
99.4758
8.69977
33.4197
99.4758
8.69977
33.4197
99.4758
8.69977
33.4197
99.4758
8.69977
33.4197
99.4758
8.69977
33.4197
99.4758
8.69977
33.4197
99.4758
8.69977
33.4197
99.4758
8.6997
33.4197
99.4761
8.69326
33.4172
65.243
60.2794
61.2124
70.108
64.4627
65.4891
69.5905
64.0174
65.0272
69.0759
63.5751
64.1337
60.1432
68.5639
63.1351
63.6798
64.153
68.0541
62.6967
63.2276
63.6986
67.5566
62.2681
62.7857
63.2545
67.0744
61.8523
62.3572
62.82
66.6263
61.4599
61.954
61.9446
60.4099
66.022
60.9538
61.4295
61.413
61.8971
65.5449
60.5415
61.0047
60.9844
61.6485
65.0766
60.1372
60.5884
61.0446
)
;

boundaryField
{
    inlet
    {
        type            calculated;
        value           uniform 99.4306;
    }
    outlet2
    {
        type            calculated;
        value           uniform 99.4306;
    }
    outlet1
    {
        type            calculated;
        value           nonuniform List<scalar> 0();
    }
    wall
    {
        type            calculated;
        value           uniform 99.4306;
    }
    symmetryBottom
    {
        type            symmetry;
    }
    symmetryZ0
    {
        type            symmetry;
    }
    symmetryZ05
    {
        type            symmetry;
    }
    procBoundary1to0
    {
        type            processor;
        value           uniform 99.4306;
    }
}


// ************************************************************************* //
