/*--------------------------------*- C++ -*----------------------------------*\
| =========                 |                                                 |
| \\      /  F ield         | OpenFOAM: The Open Source CFD Toolbox           |
|  \\    /   O peration     | Version:  2412                                  |
|   \\  /    A nd           | Website:  www.openfoam.com                      |
|    \\/     M anipulation  |                                                 |
\*---------------------------------------------------------------------------*/
FoamFile
{
    version     2.0;
    format      ascii;
    arch        "LSB;label=32;scalar=64";
    class       volScalarField;
    location    "6.2e-06";
    object      E;
}
// * * * * * * * * * * * * * * * * * * * * * * * * * * * * * * * * * * * * * //

dimensions      [0 0 0 0 0 0 0];

internalField   nonuniform List<scalar> 
84
(
96.8319
63.2691
66.6825
66.4579
66.4734
66.4772
66.4817
66.9543
102.47
67.0472
70.7095
70.5341
70.6135
70.6826
70.7546
71.2499
101.386
67.1245
70.2233
70.1074
70.1751
70.2373
70.3017
70.7948
100.96
66.3203
69.9122
69.728
69.7951
69.8517
70.3424
100.774
65.8912
69.4856
69.2944
69.3545
69.4038
69.8922
100.18
65.492
69.0595
68.8628
68.9157
68.9578
69.4438
99.5967
65.1041
68.6428
68.4411
68.4871
68.522
69.0058
98.7715
64.9885
68.2043
68.0332
68.07
68.0984
68.5799
98.3033
64.404
67.8796
67.669
67.7027
68.1818
97.8118
63.9087
67.3688
67.1515
67.1772
67.6533
97.1267
63.5453
66.9619
66.7405
66.7592
67.2332
96.0342
63.2977
66.544
66.3333
66.3446
66.3452
66.8175
)
;

boundaryField
{
    inlet
    {
        type            calculated;
        value           nonuniform List<scalar> 0();
    }
    outlet2
    {
        type            calculated;
        value           uniform 0;
    }
    outlet1
    {
        type            calculated;
        value           uniform 0;
    }
    wall
    {
        type            calculated;
        value           uniform 0;
    }
    symmetryBottom
    {
        type            symmetry;
    }
    symmetryZ0
    {
        type            symmetry;
    }
    symmetryZ05
    {
        type            symmetry;
    }
    procBoundary0to1
    {
        type            processor;
        value           uniform 0;
    }
}


// ************************************************************************* //
