/*--------------------------------*- C++ -*----------------------------------*\
| =========                 |                                                 |
| \\      /  F ield         | OpenFOAM: The Open Source CFD Toolbox           |
|  \\    /   O peration     | Version:  2412                                  |
|   \\  /    A nd           | Website:  www.openfoam.com                      |
|    \\/     M anipulation  |                                                 |
\*---------------------------------------------------------------------------*/
FoamFile
{
    version     2.0;
    format      ascii;
    arch        "LSB;label=32;scalar=64";
    class       volScalarField;
    location    "6.2e-06";
    object      rho;
}
// * * * * * * * * * * * * * * * * * * * * * * * * * * * * * * * * * * * * * //

dimensions      [0 0 0 0 0 0 0];

internalField   nonuniform List<scalar> 
84
(
2.74063e-05
1.80037e-05
1.8949e-05
1.88877e-05
1.88921e-05
1.88934e-05
1.88948e-05
1.90274e-05
2.89672e-05
1.9054e-05
2.00674e-05
2.00198e-05
2.0042e-05
2.00614e-05
2.00816e-05
2.02204e-05
2.86653e-05
1.90737e-05
1.99314e-05
1.99001e-05
1.9919e-05
1.99365e-05
1.99546e-05
2.00927e-05
2.8546e-05
1.88497e-05
1.98438e-05
1.97937e-05
1.98124e-05
1.98283e-05
1.99658e-05
2.84931e-05
1.87293e-05
1.97241e-05
1.96721e-05
1.96888e-05
1.97026e-05
1.98395e-05
2.83262e-05
1.86168e-05
1.9604e-05
1.95505e-05
1.95652e-05
1.9577e-05
1.97132e-05
2.81586e-05
1.85053e-05
1.94843e-05
1.94293e-05
1.9442e-05
1.94518e-05
1.95873e-05
2.7923e-05
1.84687e-05
1.93579e-05
1.93112e-05
1.93213e-05
1.93292e-05
1.94641e-05
2.77695e-05
1.82883e-05
1.92484e-05
1.91906e-05
1.91995e-05
1.93336e-05
2.76837e-05
1.81834e-05
1.91422e-05
1.9083e-05
1.90903e-05
1.92238e-05
2.74787e-05
1.80734e-05
1.90194e-05
1.89589e-05
1.89641e-05
1.9097e-05
2.71682e-05
1.80021e-05
1.89e-05
1.88425e-05
1.88456e-05
1.88458e-05
1.89782e-05
)
;

boundaryField
{
    inlet
    {
        type            calculated;
        value           nonuniform List<scalar> 0();
    }
    outlet2
    {
        type            calculated;
        value           uniform 0;
    }
    outlet1
    {
        type            calculated;
        value           uniform 0;
    }
    wall
    {
        type            calculated;
        value           uniform 0;
    }
    symmetryBottom
    {
        type            symmetry;
    }
    symmetryZ0
    {
        type            symmetry;
    }
    symmetryZ05
    {
        type            symmetry;
    }
    procBoundary0to1
    {
        type            processor;
        value           uniform 0;
    }
}


// ************************************************************************* //
