/*--------------------------------*- C++ -*----------------------------------*\
| =========                 |                                                 |
| \\      /  F ield         | OpenFOAM: The Open Source CFD Toolbox           |
|  \\    /   O peration     | Version:  2412                                  |
|   \\  /    A nd           | Website:  www.openfoam.com                      |
|    \\/     M anipulation  |                                                 |
\*---------------------------------------------------------------------------*/
FoamFile
{
    version     2.0;
    format      ascii;
    arch        "LSB;label=32;scalar=64";
    class       volVectorField;
    location    "6.2e-06";
    object      rhoU;
}
// * * * * * * * * * * * * * * * * * * * * * * * * * * * * * * * * * * * * * //

dimensions      [0 0 0 0 0 0 0];

internalField   nonuniform List<vector> 
84
(
(0.0721976 0.000173889 1.7465e-19)
(0.047298 0.000116375 -1.68532e-19)
(0.049816 0.000124116 -2.91485e-19)
(0.0496514 0.000125512 1.88084e-19)
(0.0496628 0.000127381 -2.59616e-20)
(0.0496657 0.000129285 2.34965e-20)
(0.0496691 0.000131248 2.77791e-19)
(0.05002 0.000131957 3.46066e-20)
(0.0763695 -0.000188699 1.75702e-19)
(0.0500992 -0.000128341 -1.6984e-19)
(0.0528002 -0.000136341 -3.79131e-19)
(0.0526721 -0.00013815 4.77083e-20)
(0.0527309 -0.000140409 -7.11154e-19)
(0.0527823 -0.000142726 1.71634e-19)
(0.0528357 -0.000145121 5.78106e-19)
(0.0532032 -0.000145855 1.16576e-19)
(0.0755674 -0.000169124 -7.08278e-19)
(0.0501539 -0.000144497 1.3966e-19)
(0.0524398 -0.000133452 2.15553e-19)
(0.0523553 -0.000137492 -2.63971e-20)
(0.0524054 -0.000139568 -1.01731e-20)
(0.0524516 -0.000141866 2.77209e-19)
(0.0524995 -0.000144232 -2.41239e-19)
(0.0528653 -0.000144964 -2.65204e-19)
(0.0752512 -0.00017533 -6.79477e-19)
(0.049559 -0.000129526 3.17919e-19)
(0.0522083 -0.000136898 -3.64045e-20)
(0.0520736 -0.00013873 -6.43105e-19)
(0.0521233 -0.000141012 6.4213e-19)
(0.0521653 -0.00014335 1.0421e-19)
(0.0525295 -0.000144078 -2.42464e-19)
(0.0751122 -0.000188787 -4.29747e-19)
(0.0492403 -0.000127852 -1.09834e-19)
(0.0518915 -0.000136188 1.27334e-20)
(0.0517517 -0.000137948 3.87005e-21)
(0.0517961 -0.000140207 -2.23503e-19)
(0.0518327 -0.000142518 1.9223e-19)
(0.0521951 -0.000143244 4.02493e-19)
(0.0746689 -0.000181514 -2.61759e-19)
(0.0489419 -0.000122692 3.41992e-19)
(0.0515732 -0.000130781 -3.81957e-20)
(0.0514292 -0.0001325 4.08391e-19)
(0.0514683 -0.000134703 -3.75125e-19)
(0.0514995 -0.000136959 3.16641e-19)
(0.0518603 -0.000137658 -6.82689e-19)
(0.0742215 -0.000145212 -9.76693e-23)
(0.0486442 -9.83528e-05 3.15645e-19)
(0.0512533 -0.000104659 -3.66481e-20)
(0.0511055 -0.000106041 1.2866e-21)
(0.0511393 -0.00010779 3.35017e-19)
(0.051165 -0.000109581 3.96917e-20)
(0.051524 -0.000110143 3.31196e-19)
(0.0735954 -0.000107406 6.5465e-21)
(0.0485467 -9.6706e-05 4.90988e-21)
(0.050917 -8.71135e-05 -1.89474e-21)
(0.0507916 -9.00811e-05 -4.87647e-21)
(0.0508184 -9.14512e-05 -9.88579e-22)
(0.050839 -9.29901e-05 2.29616e-21)
(0.0511963 -9.34658e-05 -2.69006e-19)
(0.0731857 -0.000102234 9.36451e-19)
(0.0480655 -7.51671e-05 -9.22378e-20)
(0.0506245 -7.95505e-05 -6.9743e-19)
(0.0504691 -8.05971e-05 -2.11914e-19)
(0.0504925 -8.19156e-05 3.86418e-19)
(0.0508477 -8.23405e-05 -4.77566e-20)
(0.0729629 -0.000107462 -3.30677e-19)
(0.0477964 -7.23404e-05 3.30165e-20)
(0.0503512 -7.71018e-05 -3.23098e-19)
(0.0501922 -7.80342e-05 3.60599e-19)
(0.0502117 -7.92543e-05 5.98827e-19)
(0.0505653 -7.96727e-05 -6.7862e-20)
(0.0724212 -0.00011288 -4.40449e-19)
(0.0475049 -8.30155e-05 4.51772e-20)
(0.0500258 -8.71997e-05 -2.10823e-21)
(0.0498635 -8.83602e-05 6.32712e-19)
(0.0498774 -8.97563e-05 6.44632e-19)
(0.0502293 -9.02279e-05 2.00999e-20)
(0.0715998 -1.69736e-05 -3.3849e-20)
(0.0473166 -0.000112946 2.40255e-21)
(0.0497105 -0.000101016 -1.20297e-22)
(0.0495561 -0.000103742 3.78277e-19)
(0.0495644 -0.000105258 -4.32556e-20)
(0.0495649 -0.0001069 3.03478e-21)
(0.0499155 -0.000107467 -3.15987e-19)
)
;

boundaryField
{
    inlet
    {
        type            calculated;
        value           nonuniform List<vector> 0();
    }
    outlet2
    {
        type            calculated;
        value           uniform (0 0 0);
    }
    outlet1
    {
        type            calculated;
        value           uniform (0 0 0);
    }
    wall
    {
        type            calculated;
        value           uniform (0 0 0);
    }
    symmetryBottom
    {
        type            symmetry;
    }
    symmetryZ0
    {
        type            symmetry;
    }
    symmetryZ05
    {
        type            symmetry;
    }
    procBoundary0to1
    {
        type            processor;
        value           uniform (0 0 0);
    }
}


// ************************************************************************* //
