/*--------------------------------*- C++ -*----------------------------------*\
| =========                 |                                                 |
| \\      /  F ield         | OpenFOAM: The Open Source CFD Toolbox           |
|  \\    /   O peration     | Version:  2412                                  |
|   \\  /    A nd           | Website:  www.openfoam.com                      |
|    \\/     M anipulation  |                                                 |
\*---------------------------------------------------------------------------*/
FoamFile
{
    version     2.0;
    format      ascii;
    arch        "LSB;label=32;scalar=64";
    class       volVectorField;
    location    "6.2e-06";
    object      U;
}
// * * * * * * * * * * * * * * * * * * * * * * * * * * * * * * * * * * * * * //

dimensions      [0 0 0 0 0 0 0];

internalField   nonuniform List<vector> 
84
(
(2634.35 6.34488 6.37263e-15)
(2627.13 6.46393 -9.36101e-15)
(2628.95 6.54997 -1.53826e-14)
(2628.76 6.64514 9.95797e-15)
(2628.76 6.74254 -1.3742e-15)
(2628.74 6.84287 1.24364e-15)
(2628.72 6.94622 1.4702e-14)
(2628.84 6.93509 1.81878e-15)
(2636.41 -6.51422 6.06556e-15)
(2629.33 -6.73565 -8.91363e-15)
(2631.15 -6.79417 -1.88929e-14)
(2631 -6.90063 2.38305e-15)
(2631.02 -7.00576 -3.54832e-14)
(2631.04 -7.11445 8.55543e-15)
(2631.05 -7.22656 2.87879e-14)
(2631.17 -7.21328 5.76528e-15)
(2636.2 -5.89996 -2.47085e-14)
(2629.49 -7.57576 7.32214e-15)
(2631.01 -6.69556 1.08147e-14)
(2630.9 -6.90911 -1.32648e-15)
(2630.92 -7.00678 -5.1072e-16)
(2630.94 -7.11589 1.39046e-14)
(2630.95 -7.22803 -1.20894e-14)
(2631.07 -7.21474 -1.3199e-14)
(2636.13 -6.142 -2.38028e-14)
(2629.17 -6.8715 1.6866e-14)
(2630.97 -6.8988 -1.83456e-15)
(2630.81 -7.00878 -3.24904e-14)
(2630.84 -7.11733 3.24104e-14)
(2630.85 -7.22953 5.25564e-15)
(2630.97 -7.21624 -1.2144e-14)
(2636.15 -6.6257 -1.50825e-14)
(2629.05 -6.82631 -5.86427e-15)
(2630.87 -6.90465 6.45577e-16)
(2630.72 -7.01239 1.96728e-16)
(2630.74 -7.12114 -1.13518e-14)
(2630.75 -7.23346 9.75656e-15)
(2630.87 -7.22015 2.02874e-14)
(2636.04 -6.40798 -9.24091e-15)
(2628.92 -6.5904 1.83701e-14)
(2630.74 -6.67115 -1.94836e-15)
(2630.58 -6.7773 2.0889e-14)
(2630.6 -6.88481 -1.91731e-14)
(2630.61 -6.99592 1.61741e-14)
(2630.73 -6.98304 -3.4631e-14)
(2635.84 -5.15694 -3.46854e-18)
(2628.66 -5.31484 1.7057e-14)
(2630.5 -5.37143 -1.8809e-15)
(2630.33 -5.4578 6.62197e-17)
(2630.35 -5.54416 1.72316e-14)
(2630.35 -5.63348 2.04052e-15)
(2630.48 -5.62318 1.69087e-14)
(2635.66 -3.8465 2.34448e-16)
(2628.59 -5.23621 2.65849e-16)
(2630.3 -4.50016 -9.78796e-17)
(2630.16 -4.6647 -2.5252e-16)
(2630.17 -4.73317 -5.11652e-17)
(2630.17 -4.81087 1.18792e-16)
(2630.29 -4.80196 -1.38206e-14)
(2635.47 -3.68152 3.37223e-14)
(2628.2 -4.11011 -5.04353e-15)
(2630.06 -4.13283 -3.62331e-14)
(2629.89 -4.19982 -1.10426e-14)
(2629.89 -4.26656 2.01265e-14)
(2630.02 -4.25894 -2.47013e-15)
(2635.59 -3.88178 -1.19448e-14)
(2628.58 -3.97839 1.81575e-15)
(2630.37 -4.02784 -1.68788e-14)
(2630.21 -4.08921 1.88964e-14)
(2630.22 -4.15155 3.13681e-14)
(2630.35 -4.14448 -3.5301e-15)
(2635.54 -4.10792 -1.60287e-14)
(2628.44 -4.59324 2.49966e-15)
(2630.25 -4.58478 -1.10846e-16)
(2630.09 -4.66062 3.33728e-14)
(2630.1 -4.73296 3.39922e-14)
(2630.22 -4.72471 1.05252e-15)
(2635.43 -0.624761 -1.24591e-15)
(2628.4 -6.27406 1.3346e-16)
(2630.18 -5.34478 -6.36491e-18)
(2630.02 -5.50574 2.00757e-14)
(2630.03 -5.5853 -2.29527e-15)
(2630.03 -5.67234 1.61032e-16)
(2630.15 -5.66265 -1.665e-14)
)
;

boundaryField
{
    inlet
    {
        type            calculated;
        value           nonuniform List<vector> 0();
    }
    outlet2
    {
        type            calculated;
        value           uniform (0 0 0);
    }
    outlet1
    {
        type            calculated;
        value           uniform (0 0 0);
    }
    wall
    {
        type            calculated;
        value           uniform (0 0 0);
    }
    symmetryBottom
    {
        type            symmetry;
    }
    symmetryZ0
    {
        type            symmetry;
    }
    symmetryZ05
    {
        type            symmetry;
    }
    procBoundary0to1
    {
        type            processor;
        value           uniform (0 0 0);
    }
}


// ************************************************************************* //
