/*--------------------------------*- C++ -*----------------------------------*\
| =========                 |                                                 |
| \\      /  F ield         | OpenFOAM: The Open Source CFD Toolbox           |
|  \\    /   O peration     | Version:  2412                                  |
|   \\  /    A nd           | Website:  www.openfoam.com                      |
|    \\/     M anipulation  |                                                 |
\*---------------------------------------------------------------------------*/
FoamFile
{
    version     2.0;
    format      ascii;
    arch        "LSB;label=32;scalar=64";
    class       volVectorField;
    location    "3.4e-06";
    object      rhoU_dof0;
}
// * * * * * * * * * * * * * * * * * * * * * * * * * * * * * * * * * * * * * //

dimensions      [0 0 0 0 0 0 0];

internalField   nonuniform List<vector> 
84
(
(0.0741069 -1.99231e-07 0)
(0.0388823 -4.17274e-07 0)
(0.0433473 -3.53684e-07 -9.83632e-20)
(0.0741151 -8.3383e-05 0)
(0.0388943 -5.19957e-05 0)
(0.043358 -5.63778e-05 -9.52391e-20)
(0.0741131 -8.31785e-05 0)
(0.0388929 -5.18618e-05 0)
(0.0433565 -5.62339e-05 1.25683e-19)
(0.0741131 -8.31785e-05 0)
(0.0388929 -5.18618e-05 0)
(0.0433565 -5.62339e-05 -1.63972e-19)
(0.0741131 -8.31785e-05 0)
(0.0388929 -5.18618e-05 0)
(0.0433565 -5.62339e-05 -2.76362e-19)
(0.0741131 -8.31785e-05 0)
(0.0388929 -5.18618e-05 0)
(0.0433565 -5.62339e-05 1.60032e-19)
(0.0741131 -8.31785e-05 0)
(0.0388929 -5.18618e-05 0)
(0.0433565 -5.62339e-05 -2.08469e-19)
(0.0741131 -8.31785e-05 0)
(0.0388929 -5.18618e-05 0)
(0.0433565 -5.62339e-05 -2.36551e-19)
(0.0741131 -8.31785e-05 0)
(0.0388929 -5.18618e-05 0)
(0.0433565 -5.62339e-05 9.52316e-20)
(0.0741131 -8.31785e-05 0)
(0.0388929 -5.18618e-05 0)
(0.0433565 -5.62339e-05 -2.08488e-19)
(0.0741131 -8.31785e-05 0)
(0.0388929 -5.18605e-05 0)
(0.0433565 -5.62329e-05 -5.0122e-19)
(0.0741132 -8.31899e-05 0)
(0.0388901 -5.15834e-05 0)
(0.0433545 -5.60292e-05 0)
(0.0604384 8.18808e-05 5.48359e-21)
(0.0594247 7.80326e-05 8.78886e-20)
(0.0596573 7.84074e-05 8.79487e-21)
(0.0623618 -8.20882e-05 5.27414e-21)
(0.0612578 -8.18715e-05 9.31797e-20)
(0.0614993 -8.21091e-05 -1.40853e-21)
(0.0621626 -8.18488e-05 -7.90404e-21)
(0.0610678 -8.16335e-05 -4.34733e-20)
(0.0613073 -8.18233e-05 -1.885e-19)
(0.0619639 -8.16045e-05 1.01605e-20)
(0.0608784 -8.13964e-05 -1.80121e-21)
(0.0609412 -8.263e-05 7.97717e-23)
(0.0593448 3.26296e-06 1.378e-19)
(0.0617656 -8.13734e-05 -3.03489e-20)
(0.0606893 -8.11717e-05 2.6199e-22)
(0.0607489 -8.23984e-05 -1.42775e-21)
(0.060949 -8.2591e-05 1.40603e-19)
(0.061567 -7.74051e-05 -9.95044e-21)
(0.0605 -7.73978e-05 -9.29864e-20)
(0.0605564 -7.85692e-05 2.40701e-21)
(0.0607561 -7.87541e-05 9.33453e-20)
(0.0613678 -6.15033e-05 1.18885e-20)
(0.0603101 -6.22127e-05 -7.52798e-22)
(0.0603633 -6.31239e-05 -3.82496e-22)
(0.0605625 -6.32739e-05 -7.57292e-22)
(0.0611715 -5.14132e-05 1.52813e-20)
(0.0601228 -5.25737e-05 -8.97619e-20)
(0.0601729 -5.33254e-05 9.85259e-20)
(0.0603709 -5.34182e-05 9.99164e-22)
(0.0609701 -4.57744e-05 -5.36989e-21)
(0.0599304 -4.71772e-05 -1.359e-19)
(0.0599772 -4.78276e-05 -1.30744e-19)
(0.0599845 -4.85259e-05 1.53851e-19)
(0.0593948 3.46657e-06 8.67266e-19)
(0.0607862 -4.52894e-05 1.28681e-20)
(0.0597563 -4.67044e-05 -1.36832e-19)
(0.0598002 -4.73322e-05 9.57463e-20)
(0.0598049 -4.80097e-05 2.19184e-19)
(0.0600041 -4.82931e-05 1.26986e-19)
(0.0605883 -5.14042e-05 3.11957e-20)
(0.0595673 -5.25265e-05 -1.07566e-21)
(0.059608 -5.32548e-05 2.01122e-22)
(0.0596103 -5.40543e-05 -1.25592e-22)
(0.0598388 -5.64005e-05 -1.4128e-19)
(0.0603961 -6.22327e-05 1.00532e-22)
(0.0593839 -6.28233e-05 1.31327e-19)
(0.0594216 -6.37194e-05 -7.15731e-21)
(0.0596182 -6.38553e-05 -2.21606e-19)
)
;

boundaryField
{
    inlet
    {
        type            calculated;
        value           uniform (0.0741049 0 0);
    }
    outlet2
    {
        type            calculated;
        value           uniform (0.0741049 0 0);
    }
    outlet1
    {
        type            calculated;
        value           nonuniform List<vector> 0();
    }
    wall
    {
        type            calculated;
        value           uniform (0.0741049 0 0);
    }
    symmetryBottom
    {
        type            symmetry;
    }
    symmetryZ0
    {
        type            symmetry;
    }
    symmetryZ05
    {
        type            symmetry;
    }
    procBoundary1to0
    {
        type            processor;
        value           uniform (0.0741049 0 0);
    }
}


// ************************************************************************* //
