/*--------------------------------*- C++ -*----------------------------------*\
| =========                 |                                                 |
| \\      /  F ield         | OpenFOAM: The Open Source CFD Toolbox           |
|  \\    /   O peration     | Version:  2412                                  |
|   \\  /    A nd           | Website:  www.openfoam.com                      |
|    \\/     M anipulation  |                                                 |
\*---------------------------------------------------------------------------*/
FoamFile
{
    version     2.0;
    format      ascii;
    arch        "LSB;label=32;scalar=64";
    class       volVectorField;
    location    "3.4e-06";
    object      U;
}
// * * * * * * * * * * * * * * * * * * * * * * * * * * * * * * * * * * * * * //

dimensions      [0 0 0 0 0 0 0];

internalField   nonuniform List<vector> 
84
(
(2636.39 -0.00708773 0)
(2623.99 -0.0281599 0)
(2628.17 -0.0214441 -5.96383e-15)
(2636.39 -2.96606 0)
(2623.99 -3.50787 0)
(2628.17 -3.41738 -5.77297e-15)
(2636.39 -2.95887 0)
(2623.99 -3.49896 0)
(2628.17 -3.40877 7.61862e-15)
(2636.39 -2.95887 0)
(2623.99 -3.49896 0)
(2628.17 -3.40877 -9.93961e-15)
(2636.39 -2.95887 0)
(2623.99 -3.49896 0)
(2628.17 -3.40877 -1.67524e-14)
(2636.39 -2.95887 0)
(2623.99 -3.49896 0)
(2628.17 -3.40877 9.70077e-15)
(2636.39 -2.95887 0)
(2623.99 -3.49896 0)
(2628.17 -3.40877 -1.26369e-14)
(2636.39 -2.95887 0)
(2623.99 -3.49896 0)
(2628.17 -3.40877 -1.43392e-14)
(2636.39 -2.95887 0)
(2623.99 -3.49896 0)
(2628.17 -3.40877 5.77272e-15)
(2636.39 -2.95887 0)
(2623.99 -3.49896 0)
(2628.17 -3.40877 -1.26381e-14)
(2636.39 -2.95887 0)
(2623.99 -3.49887 0)
(2628.17 -3.40871 -3.03828e-14)
(2636.39 -2.95927 0)
(2623.99 -3.48043 0)
(2628.17 -3.39653 0)
(2632.74 3.56678 2.38869e-16)
(2632.24 3.45648 3.89306e-15)
(2632.32 3.45965 3.88065e-16)
(2633.92 -3.46708 2.22759e-16)
(2633.37 -3.51951 4.00564e-15)
(2633.45 -3.51599 -6.03144e-17)
(2633.86 -3.46798 -3.34899e-16)
(2633.32 -3.52014 -1.87462e-15)
(2633.4 -3.51465 -8.09686e-15)
(2633.81 -3.46865 4.31877e-16)
(2633.27 -3.52077 -7.79108e-17)
(2633.31 -3.5705 3.44699e-18)
(2632.87 0.144763 6.11359e-15)
(2633.76 -3.46986 -1.29411e-15)
(2633.22 -3.52192 1.13674e-17)
(2633.26 -3.57169 -6.1888e-17)
(2633.31 -3.56836 6.07476e-15)
(2633.69 -3.3112 -4.25656e-16)
(2633.15 -3.3686 -4.04706e-15)
(2633.19 -3.41644 1.04665e-16)
(2633.24 -3.4133 4.0457e-15)
(2633.58 -2.63939 5.1019e-16)
(2633.04 -2.71611 -3.28659e-17)
(2633.07 -2.75349 -1.66846e-17)
(2633.13 -2.75101 -3.29255e-17)
(2633.5 -2.2134 6.57878e-16)
(2632.96 -2.30236 -3.93095e-15)
(2632.99 -2.33337 4.31121e-15)
(2633.05 -2.32981 4.3578e-17)
(2633.43 -1.97709 -2.31937e-16)
(2632.87 -2.07259 -5.97037e-15)
(2632.9 -2.09955 -5.73945e-15)
(2632.9 -2.12995 6.75297e-15)
(2632.86 0.153667 3.84443e-14)
(2633.45 -1.96208 5.57486e-16)
(2632.94 -2.05786 -6.02899e-15)
(2632.97 -2.08401 4.21567e-15)
(2632.97 -2.11368 9.64982e-15)
(2633.03 -2.11914 5.57223e-15)
(2633.41 -2.23423 1.35589e-15)
(2632.9 -2.32169 -4.75448e-17)
(2632.93 -2.3523 8.88372e-18)
(2632.93 -2.38753 -5.54728e-18)
(2632.99 -2.4817 -6.21651e-15)
(2633.38 -2.71346 4.38337e-18)
(2632.87 -2.78536 5.82256e-15)
(2632.9 -2.82333 -3.17132e-16)
(2632.95 -2.82008 -9.78693e-15)
)
;

boundaryField
{
    inlet
    {
        type            calculated;
        value           uniform (0 0 0);
    }
    outlet2
    {
        type            calculated;
        value           uniform (0 0 0);
    }
    outlet1
    {
        type            calculated;
        value           nonuniform List<vector> 0();
    }
    wall
    {
        type            calculated;
        value           uniform (0 0 0);
    }
    symmetryBottom
    {
        type            symmetry;
    }
    symmetryZ0
    {
        type            symmetry;
    }
    symmetryZ05
    {
        type            symmetry;
    }
    procBoundary1to0
    {
        type            processor;
        value           uniform (0 0 0);
    }
}


// ************************************************************************* //
