/*--------------------------------*- C++ -*----------------------------------*\
| =========                 |                                                 |
| \\      /  F ield         | OpenFOAM: The Open Source CFD Toolbox           |
|  \\    /   O peration     | Version:  2412                                  |
|   \\  /    A nd           | Website:  www.openfoam.com                      |
|    \\/     M anipulation  |                                                 |
\*---------------------------------------------------------------------------*/
FoamFile
{
    version     2.0;
    format      ascii;
    arch        "LSB;label=32;scalar=64";
    class       volScalarField;
    location    "3.4e-06";
    object      E;
}
// * * * * * * * * * * * * * * * * * * * * * * * * * * * * * * * * * * * * * //

dimensions      [0 0 0 0 0 0 0];

internalField   nonuniform List<scalar> 
84
(
98.7257
78.6129
79.7206
79.6826
79.6853
79.687
79.6888
79.9852
101.869
81.1724
82.3518
82.3527
82.3966
82.4407
82.4864
82.7905
101.384
81.051
82.0695
82.0764
82.1155
82.1552
82.1962
82.4995
101.129
80.6784
81.8407
81.8344
81.8706
81.907
82.2095
100.938
80.4058
81.5655
81.5549
81.5867
81.6185
81.9203
100.612
80.1399
81.292
81.2772
81.3046
81.3317
81.6328
100.293
79.8802
81.0245
81.0057
81.0287
81.0514
81.3517
99.8942
79.7043
80.7562
80.739
80.7576
80.7759
81.0755
99.6355
79.4067
80.5352
80.5092
80.5245
80.8234
99.2975
79.0672
80.1891
80.1579
80.1678
80.4656
98.9493
78.8183
79.93
79.8948
79.9004
80.1976
98.3271
78.6029
79.6608
79.6244
79.6257
79.626
79.9224
)
;

boundaryField
{
    inlet
    {
        type            calculated;
        value           nonuniform List<scalar> 0();
    }
    outlet2
    {
        type            calculated;
        value           uniform 0;
    }
    outlet1
    {
        type            calculated;
        value           uniform 0;
    }
    wall
    {
        type            calculated;
        value           uniform 0;
    }
    symmetryBottom
    {
        type            symmetry;
    }
    symmetryZ0
    {
        type            symmetry;
    }
    symmetryZ05
    {
        type            symmetry;
    }
    procBoundary0to1
    {
        type            processor;
        value           uniform 0;
    }
}


// ************************************************************************* //
