/*--------------------------------*- C++ -*----------------------------------*\
| =========                 |                                                 |
| \\      /  F ield         | OpenFOAM: The Open Source CFD Toolbox           |
|  \\    /   O peration     | Version:  2412                                  |
|   \\  /    A nd           | Website:  www.openfoam.com                      |
|    \\/     M anipulation  |                                                 |
\*---------------------------------------------------------------------------*/
FoamFile
{
    version     2.0;
    format      ascii;
    arch        "LSB;label=32;scalar=64";
    class       volScalarField;
    location    "3.4e-06";
    object      rho_dof0;
}
// * * * * * * * * * * * * * * * * * * * * * * * * * * * * * * * * * * * * * //

dimensions      [0 0 0 0 0 0 0];

internalField   nonuniform List<scalar> 
84
(
2.79232e-05
2.22954e-05
2.26019e-05
2.25917e-05
2.25925e-05
2.25931e-05
2.25937e-05
2.26767e-05
2.8793e-05
2.30052e-05
2.33314e-05
2.33319e-05
2.33442e-05
2.33566e-05
2.33693e-05
2.34544e-05
2.86579e-05
2.29707e-05
2.32524e-05
2.32546e-05
2.32655e-05
2.32766e-05
2.32881e-05
2.3373e-05
2.85866e-05
2.28668e-05
2.31883e-05
2.31868e-05
2.31969e-05
2.32071e-05
2.32918e-05
2.85328e-05
2.27905e-05
2.31112e-05
2.31085e-05
2.31174e-05
2.31263e-05
2.32108e-05
2.84413e-05
2.27156e-05
2.30342e-05
2.30303e-05
2.3038e-05
2.30456e-05
2.31298e-05
2.83497e-05
2.2641e-05
2.29574e-05
2.29523e-05
2.29587e-05
2.2965e-05
2.30491e-05
2.82353e-05
2.25892e-05
2.28799e-05
2.28752e-05
2.28803e-05
2.28854e-05
2.29692e-05
2.81504e-05
2.24951e-05
2.28067e-05
2.27994e-05
2.28034e-05
2.2887e-05
2.80846e-05
2.24233e-05
2.27339e-05
2.27255e-05
2.27284e-05
2.28118e-05
2.798e-05
2.2348e-05
2.26555e-05
2.26459e-05
2.26475e-05
2.27307e-05
2.78033e-05
2.22864e-05
2.25787e-05
2.25688e-05
2.25691e-05
2.25693e-05
2.26522e-05
)
;

boundaryField
{
    inlet
    {
        type            calculated;
        value           nonuniform List<scalar> 0();
    }
    outlet2
    {
        type            calculated;
        value           uniform 2.81085e-05;
    }
    outlet1
    {
        type            calculated;
        value           uniform 2.81085e-05;
    }
    wall
    {
        type            calculated;
        value           uniform 2.81085e-05;
    }
    symmetryBottom
    {
        type            symmetry;
    }
    symmetryZ0
    {
        type            symmetry;
    }
    symmetryZ05
    {
        type            symmetry;
    }
    procBoundary0to1
    {
        type            processor;
        value           uniform 2.81085e-05;
    }
}


// ************************************************************************* //
