/*--------------------------------*- C++ -*----------------------------------*\
| =========                 |                                                 |
| \\      /  F ield         | OpenFOAM: The Open Source CFD Toolbox           |
|  \\    /   O peration     | Version:  2412                                  |
|   \\  /    A nd           | Website:  www.openfoam.com                      |
|    \\/     M anipulation  |                                                 |
\*---------------------------------------------------------------------------*/
FoamFile
{
    version     2.0;
    format      ascii;
    arch        "LSB;label=32;scalar=64";
    class       volVectorField;
    location    "3.4e-06";
    object      rhoU;
}
// * * * * * * * * * * * * * * * * * * * * * * * * * * * * * * * * * * * * * //

dimensions      [0 0 0 0 0 0 0];

internalField   nonuniform List<vector> 
84
(
(0.0735907 9.90422e-05 1.00648e-19)
(0.0586771 8.05479e-05 -1.01086e-19)
(0.0594939 8.2805e-05 -2.22645e-19)
(0.0594662 8.3991e-05 1.10811e-19)
(0.0594682 8.52526e-05 -7.03838e-21)
(0.0594695 8.65515e-05 1.31174e-20)
(0.0594709 8.78906e-05 2.13137e-19)
(0.0596908 8.81351e-05 4.24516e-20)
(0.0759161 -0.000103068 1.03826e-19)
(0.0605725 -8.4668e-05 -9.89423e-20)
(0.0614421 -8.69688e-05 -2.6838e-19)
(0.0614431 -8.82887e-05 1.84076e-20)
(0.0614756 -8.96843e-05 -4.84464e-19)
(0.0615084 -9.11239e-05 8.04208e-20)
(0.0615423 -9.26105e-05 3.8906e-19)
(0.0617678 -9.28513e-05 8.03812e-20)
(0.0755571 -9.67559e-05 -4.59476e-19)
(0.0604817 -8.9451e-05 7.25473e-20)
(0.0612328 -8.63642e-05 1.40459e-19)
(0.0612381 -8.80251e-05 -9.44078e-21)
(0.0612672 -8.93992e-05 -4.38874e-21)
(0.0612966 -9.08301e-05 2.02424e-19)
(0.061327 -9.23071e-05 -1.62128e-19)
(0.061552 -9.25475e-05 -1.99335e-19)
(0.0753681 -9.92837e-05 -4.52567e-19)
(0.060206 -8.55593e-05 2.14567e-19)
(0.061063 -8.77687e-05 -1.29806e-20)
(0.0610586 -8.91149e-05 -4.35009e-19)
(0.0610855 -9.05373e-05 4.12094e-19)
(0.0611125 -9.20049e-05 8.34741e-20)
(0.0613369 -9.22447e-05 -1.61472e-19)
(0.0752259 -0.000103754 -2.55399e-19)
(0.0600037 -8.51402e-05 -8.15011e-20)
(0.0608588 -8.75124e-05 4.84109e-21)
(0.0608513 -8.88463e-05 1.46998e-21)
(0.0608749 -9.02602e-05 -1.46617e-19)
(0.0608984 -9.17189e-05 1.12986e-19)
(0.0611223 -9.19584e-05 2.80655e-19)
(0.0749827 -9.90655e-05 -1.55178e-19)
(0.0598049 -8.12011e-05 2.37237e-19)
(0.0606544 -8.34846e-05 -1.35515e-20)
(0.0606437 -8.47671e-05 2.85536e-19)
(0.060664 -8.61272e-05 -2.56461e-19)
(0.0606841 -8.75307e-05 2.20569e-19)
(0.0609074 -8.77604e-05 -4.70071e-19)
(0.0747381 -7.96095e-05 -3.67184e-23)
(0.0596057 -6.52445e-05 2.33515e-19)
(0.0604492 -6.7057e-05 -1.33134e-20)
(0.0604354 -6.80843e-05 -3.0912e-22)
(0.0604524 -6.91722e-05 2.36182e-19)
(0.0604691 -7.02947e-05 3.59714e-20)
(0.0606917 -7.04804e-05 2.42963e-19)
(0.0744342 -6.22838e-05 2.08169e-21)
(0.059468 -5.90878e-05 1.43958e-21)
(0.0602431 -5.63948e-05 -8.66851e-22)
(0.0602304 -5.75416e-05 -1.74163e-21)
(0.0602439 -5.84541e-05 -3.24764e-22)
(0.0602573 -5.94066e-05 6.26447e-22)
(0.0604794 -5.95641e-05 -2.10676e-19)
(0.0742083 -5.85833e-05 5.49428e-19)
(0.0592174 -5.02278e-05 -2.97678e-20)
(0.0600482 -5.15593e-05 -4.74972e-19)
(0.0600285 -5.23519e-05 -1.76811e-19)
(0.0600391 -5.3191e-05 2.64948e-19)
(0.0602606 -5.33337e-05 -6.06946e-21)
(0.0740354 -6.0677e-05 -1.97475e-19)
(0.0590304 -4.95463e-05 1.0604e-20)
(0.0598582 -5.09425e-05 -2.31989e-19)
(0.0598357 -5.17042e-05 2.46345e-19)
(0.0598434 -5.25131e-05 4.15264e-19)
(0.0600644 -5.26557e-05 -2.64785e-20)
(0.0737589 -6.55456e-05 -2.66784e-19)
(0.058831 -5.59529e-05 1.41924e-20)
(0.0596508 -5.73341e-05 -1.84269e-22)
(0.0596252 -5.82042e-05 4.25376e-19)
(0.0596294 -5.91205e-05 4.52772e-19)
(0.0598498 -5.92806e-05 2.63628e-20)
(0.0732914 -5.78081e-06 -1.26673e-20)
(0.0586682 -7.12295e-05 4.45059e-22)
(0.0594479 -6.73126e-05 -1.13045e-23)
(0.0594212 -6.85645e-05 2.68486e-19)
(0.0594222 -6.96145e-05 -1.58635e-20)
(0.0594225 -7.0705e-05 5.72235e-22)
(0.0596424 -7.08989e-05 -2.433e-19)
)
;

boundaryField
{
    inlet
    {
        type            calculated;
        value           nonuniform List<vector> 0();
    }
    outlet2
    {
        type            calculated;
        value           uniform (0 0 0);
    }
    outlet1
    {
        type            calculated;
        value           uniform (0 0 0);
    }
    wall
    {
        type            calculated;
        value           uniform (0 0 0);
    }
    symmetryBottom
    {
        type            symmetry;
    }
    symmetryZ0
    {
        type            symmetry;
    }
    symmetryZ05
    {
        type            symmetry;
    }
    procBoundary0to1
    {
        type            processor;
        value           uniform (0 0 0);
    }
}


// ************************************************************************* //
