/*--------------------------------*- C++ -*----------------------------------*\
| =========                 |                                                 |
| \\      /  F ield         | OpenFOAM: The Open Source CFD Toolbox           |
|  \\    /   O peration     | Version:  2412                                  |
|   \\  /    A nd           | Website:  www.openfoam.com                      |
|    \\/     M anipulation  |                                                 |
\*---------------------------------------------------------------------------*/
FoamFile
{
    version     2.0;
    format      ascii;
    arch        "LSB;label=32;scalar=64";
    class       volScalarField;
    location    "4.1e-06";
    object      rho_dof0;
}
// * * * * * * * * * * * * * * * * * * * * * * * * * * * * * * * * * * * * * //

dimensions      [0 0 0 0 0 0 0];

internalField   nonuniform List<scalar> 
84
(
2.78204e-05
2.11813e-05
2.16194e-05
2.16012e-05
2.16026e-05
2.16033e-05
2.16042e-05
2.1701e-05
2.88662e-05
2.19953e-05
2.24614e-05
2.24555e-05
2.247e-05
2.24844e-05
2.24993e-05
2.2599e-05
2.86932e-05
2.19678e-05
2.23681e-05
2.23658e-05
2.23787e-05
2.23916e-05
2.2405e-05
2.25045e-05
2.8609e-05
2.18365e-05
2.22954e-05
2.22872e-05
2.22993e-05
2.23111e-05
2.24103e-05
2.85522e-05
2.17478e-05
2.22062e-05
2.21965e-05
2.22072e-05
2.22175e-05
2.23163e-05
2.84417e-05
2.16616e-05
2.21169e-05
2.21059e-05
2.21151e-05
2.21239e-05
2.22225e-05
2.8331e-05
2.15757e-05
2.20278e-05
2.20155e-05
2.20232e-05
2.20306e-05
2.21288e-05
2.81881e-05
2.15232e-05
2.19373e-05
2.19265e-05
2.19326e-05
2.19385e-05
2.20365e-05
2.80859e-05
2.1408e-05
2.1853e-05
2.18381e-05
2.18431e-05
2.19407e-05
2.80124e-05
2.13261e-05
2.17699e-05
2.17539e-05
2.17575e-05
2.18549e-05
2.78835e-05
2.12398e-05
2.1679e-05
2.16616e-05
2.16638e-05
2.17608e-05
2.76724e-05
2.11727e-05
2.15902e-05
2.15729e-05
2.15736e-05
2.15737e-05
2.16705e-05
)
;

boundaryField
{
    inlet
    {
        type            calculated;
        value           nonuniform List<scalar> 0();
    }
    outlet2
    {
        type            calculated;
        value           uniform 2.81085e-05;
    }
    outlet1
    {
        type            calculated;
        value           uniform 2.81085e-05;
    }
    wall
    {
        type            calculated;
        value           uniform 2.81085e-05;
    }
    symmetryBottom
    {
        type            symmetry;
    }
    symmetryZ0
    {
        type            symmetry;
    }
    symmetryZ05
    {
        type            symmetry;
    }
    procBoundary0to1
    {
        type            processor;
        value           uniform 2.81085e-05;
    }
}


// ************************************************************************* //
