/*--------------------------------*- C++ -*----------------------------------*\
| =========                 |                                                 |
| \\      /  F ield         | OpenFOAM: The Open Source CFD Toolbox           |
|  \\    /   O peration     | Version:  2412                                  |
|   \\  /    A nd           | Website:  www.openfoam.com                      |
|    \\/     M anipulation  |                                                 |
\*---------------------------------------------------------------------------*/
FoamFile
{
    version     2.0;
    format      ascii;
    arch        "LSB;label=32;scalar=64";
    class       volVectorField;
    location    "4.1e-06";
    object      rhoU;
}
// * * * * * * * * * * * * * * * * * * * * * * * * * * * * * * * * * * * * * //

dimensions      [0 0 0 0 0 0 0];

internalField   nonuniform List<vector> 
84
(
(0.0733127 0.000118431 1.19359e-19)
(0.055722 9.18467e-05 -1.18923e-19)
(0.0568894 9.50493e-05 -2.43752e-19)
(0.0568405 9.63676e-05 1.30607e-19)
(0.0568438 9.78099e-05 -1.08533e-20)
(0.0568456 9.92933e-05 1.56683e-20)
(0.0568474 0.000100822 2.31735e-19)
(0.0571038 0.000101166 4.14517e-20)
(0.0761084 -0.000124546 1.23303e-19)
(0.0578953 -9.76863e-05 -1.18359e-19)
(0.0591378 -0.000100957 -2.9864e-19)
(0.0591213 -0.000102468 2.49981e-20)
(0.0591599 -0.0001041 -5.54708e-19)
(0.059198 -0.000105782 1.02026e-19)
(0.0592374 -0.00010752 4.4561e-19)
(0.0595018 -0.000107864 9.05901e-20)
(0.0756488 -0.000115503 -5.24798e-19)
(0.0578234 -0.000104709 9.03334e-20)
(0.0588905 -9.99769e-05 1.65501e-19)
(0.0588839 -0.000102105 -1.30291e-20)
(0.0589181 -0.000103696 -5.76308e-21)
(0.0589523 -0.000105367 2.2421e-19)
(0.0589877 -0.000107091 -1.91115e-19)
(0.0592513 -0.000107434 -2.2041e-19)
(0.0754254 -0.000118823 -5.10168e-19)
(0.0574746 -9.866e-05 2.41648e-19)
(0.0586981 -0.000101756 -1.81284e-20)
(0.0586757 -0.000103294 -4.94557e-19)
(0.0587077 -0.000104953 4.74621e-19)
(0.058739 -0.000106664 9.15478e-20)
(0.0590018 -0.000107006 -1.90966e-19)
(0.0752754 -0.000125174 -3.04136e-19)
(0.0572398 -9.80158e-05 -8.98033e-20)
(0.0584617 -0.000101398 6.6501e-21)
(0.0584355 -0.000102915 2.0319e-21)
(0.0584637 -0.000104563 -1.74348e-19)
(0.058491 -0.000106261 1.35406e-19)
(0.058753 -0.000106602 3.12676e-19)
(0.0749819 -0.000119725 -1.84945e-19)
(0.0570109 -9.36253e-05 2.65663e-19)
(0.0582248 -9.68894e-05 -1.89655e-20)
(0.058195 -9.8353e-05 3.19851e-19)
(0.0582193 -9.99433e-05 -2.87849e-19)
(0.0582427 -0.000101583 2.48691e-19)
(0.0585038 -0.000101911 -5.32651e-19)
(0.0746864 -9.6108e-05 -5.05902e-23)
(0.0567817 -7.51761e-05 2.58838e-19)
(0.057987 -7.77539e-05 -1.85978e-20)
(0.0579537 -7.89256e-05 -1.01727e-22)
(0.0579741 -8.01952e-05 2.67475e-19)
(0.0579934 -8.15045e-05 3.66945e-20)
(0.0582538 -8.17688e-05 2.66841e-19)
(0.0743066 -7.41008e-05 3.04622e-21)
(0.0566419 -6.93792e-05 2.13703e-21)
(0.0577462 -6.52838e-05 -1.08113e-21)
(0.0577169 -6.67762e-05 -2.42183e-21)
(0.0577332 -6.78326e-05 -4.90686e-22)
(0.0577486 -6.8946e-05 9.75866e-22)
(0.0580082 -6.917e-05 -2.34772e-19)
(0.0740344 -6.99145e-05 6.44999e-19)
(0.0563352 -5.77504e-05 -4.25535e-20)
(0.0575215 -5.96114e-05 -5.46535e-19)
(0.0574815 -6.05107e-05 -2.01458e-19)
(0.0574945 -6.14843e-05 2.99149e-19)
(0.0577531 -6.16865e-05 -1.64537e-20)
(0.0738419 -7.27156e-05 -2.31665e-19)
(0.0561225 -5.66444e-05 1.52145e-20)
(0.0573055 -5.86203e-05 -2.5713e-19)
(0.0572624 -5.94729e-05 2.77141e-19)
(0.0572721 -6.0402e-05 4.70979e-19)
(0.05753 -6.06033e-05 -3.68051e-20)
(0.0735013 -7.79785e-05 -3.20713e-19)
(0.055894 -6.41716e-05 2.04776e-20)
(0.0570648 -6.60567e-05 -4.43309e-22)
(0.0570182 -6.70416e-05 4.83659e-19)
(0.0570239 -6.80969e-05 5.08645e-19)
(0.0572809 -6.83231e-05 2.48118e-20)
(0.0729425 -8.16296e-06 -1.75749e-20)
(0.0557168 -8.30185e-05 7.69906e-22)
(0.0568302 -7.734e-05 -2.41055e-23)
(0.0567836 -7.8903e-05 3.00805e-19)
(0.0567855 -8.01026e-05 -2.19505e-20)
(0.0567859 -8.13555e-05 9.77424e-22)
(0.0570422 -8.16287e-05 -2.64031e-19)
)
;

boundaryField
{
    inlet
    {
        type            calculated;
        value           nonuniform List<vector> 0();
    }
    outlet2
    {
        type            calculated;
        value           uniform (0 0 0);
    }
    outlet1
    {
        type            calculated;
        value           uniform (0 0 0);
    }
    wall
    {
        type            calculated;
        value           uniform (0 0 0);
    }
    symmetryBottom
    {
        type            symmetry;
    }
    symmetryZ0
    {
        type            symmetry;
    }
    symmetryZ05
    {
        type            symmetry;
    }
    procBoundary0to1
    {
        type            processor;
        value           uniform (0 0 0);
    }
}


// ************************************************************************* //
