/*--------------------------------*- C++ -*----------------------------------*\
| =========                 |                                                 |
| \\      /  F ield         | OpenFOAM: The Open Source CFD Toolbox           |
|  \\    /   O peration     | Version:  2412                                  |
|   \\  /    A nd           | Website:  www.openfoam.com                      |
|    \\/     M anipulation  |                                                 |
\*---------------------------------------------------------------------------*/
FoamFile
{
    version     2.0;
    format      ascii;
    arch        "LSB;label=32;scalar=64";
    class       volScalarField;
    location    "2.9e-06";
    object      rho;
}
// * * * * * * * * * * * * * * * * * * * * * * * * * * * * * * * * * * * * * //

dimensions      [0 0 0 0 0 0 0];

internalField   nonuniform List<scalar> 
84
(
2.81091e-05
1.65537e-05
1.77983e-05
2.81114e-05
1.65575e-05
1.78017e-05
2.81108e-05
1.65571e-05
1.78013e-05
2.81108e-05
1.65571e-05
1.78013e-05
2.81108e-05
1.65571e-05
1.78013e-05
2.81108e-05
1.65571e-05
1.78013e-05
2.81108e-05
1.65571e-05
1.78013e-05
2.81108e-05
1.65571e-05
1.78013e-05
2.81108e-05
1.65571e-05
1.78013e-05
2.81108e-05
1.65571e-05
1.78013e-05
2.81108e-05
1.65571e-05
1.78013e-05
2.81108e-05
1.65562e-05
1.78006e-05
2.36033e-05
2.33169e-05
2.33901e-05
2.4231e-05
2.39216e-05
2.3997e-05
2.41657e-05
2.38586e-05
2.39335e-05
2.41005e-05
2.37958e-05
2.38127e-05
2.3287e-05
2.40355e-05
2.37331e-05
2.3749e-05
2.38149e-05
2.39705e-05
2.36705e-05
2.36853e-05
2.37511e-05
2.39056e-05
2.3608e-05
2.36218e-05
2.36875e-05
2.38412e-05
2.3546e-05
2.35588e-05
2.36242e-05
2.37755e-05
2.34827e-05
2.34945e-05
2.3497e-05
2.33011e-05
2.3714e-05
2.34234e-05
2.34343e-05
2.3436e-05
2.35017e-05
2.36489e-05
2.33607e-05
2.33706e-05
2.33715e-05
2.34453e-05
2.35854e-05
2.32995e-05
2.33083e-05
2.33733e-05
)
;

boundaryField
{
    inlet
    {
        type            calculated;
        value           uniform 0;
    }
    outlet2
    {
        type            calculated;
        value           uniform 0;
    }
    outlet1
    {
        type            calculated;
        value           nonuniform List<scalar> 0();
    }
    wall
    {
        type            calculated;
        value           uniform 0;
    }
    symmetryBottom
    {
        type            symmetry;
    }
    symmetryZ0
    {
        type            symmetry;
    }
    symmetryZ05
    {
        type            symmetry;
    }
    procBoundary1to0
    {
        type            processor;
        value           uniform 0;
    }
}


// ************************************************************************* //
