/*--------------------------------*- C++ -*----------------------------------*\
| =========                 |                                                 |
| \\      /  F ield         | OpenFOAM: The Open Source CFD Toolbox           |
|  \\    /   O peration     | Version:  2412                                  |
|   \\  /    A nd           | Website:  www.openfoam.com                      |
|    \\/     M anipulation  |                                                 |
\*---------------------------------------------------------------------------*/
FoamFile
{
    version     2.0;
    format      ascii;
    arch        "LSB;label=32;scalar=64";
    class       volVectorField;
    location    "2.9e-06";
    object      rhoU_dof0;
}
// * * * * * * * * * * * * * * * * * * * * * * * * * * * * * * * * * * * * * //

dimensions      [0 0 0 0 0 0 0];

internalField   nonuniform List<vector> 
84
(
(0.0741064 -1.46409e-07 0)
(0.0434788 -3.55964e-07 0)
(0.0467964 -3.06605e-07 -8.74331e-20)
(0.0741125 -7.25641e-05 0)
(0.043489 -4.92272e-05 0)
(0.0468056 -5.19862e-05 -8.27481e-20)
(0.0741109 -7.24113e-05 0)
(0.0434879 -4.91195e-05 0)
(0.0468044 -5.18731e-05 1.15535e-19)
(0.0741109 -7.24113e-05 0)
(0.0434879 -4.91195e-05 0)
(0.0468044 -5.18731e-05 -1.5147e-19)
(0.0741109 -7.24113e-05 0)
(0.0434879 -4.91195e-05 0)
(0.0468044 -5.18731e-05 -2.54499e-19)
(0.0741109 -7.24113e-05 0)
(0.0434879 -4.91195e-05 0)
(0.0468044 -5.18731e-05 1.46761e-19)
(0.0741109 -7.24113e-05 0)
(0.0434879 -4.91195e-05 0)
(0.0468044 -5.18731e-05 -1.87379e-19)
(0.0741109 -7.24113e-05 0)
(0.0434879 -4.91195e-05 0)
(0.0468044 -5.18731e-05 -2.21713e-19)
(0.0741109 -7.24113e-05 0)
(0.0434879 -4.91195e-05 0)
(0.0468044 -5.18731e-05 8.43046e-20)
(0.0741109 -7.24113e-05 0)
(0.0434879 -4.91195e-05 0)
(0.0468044 -5.18731e-05 -1.85831e-19)
(0.0741109 -7.24113e-05 0)
(0.0434879 -4.91185e-05 0)
(0.0468044 -5.18723e-05 -4.55927e-19)
(0.074111 -7.24213e-05 0)
(0.0434854 -4.88746e-05 0)
(0.0468025 -5.1683e-05 0)
(0.0621528 7.16477e-05 4.06213e-21)
(0.0613901 6.89972e-05 7.61513e-20)
(0.0615843 6.92522e-05 7.62558e-21)
(0.0638298 -7.16648e-05 3.91493e-21)
(0.0630051 -7.1809e-05 8.14334e-20)
(0.0632053 -7.19737e-05 -1.01491e-21)
(0.0636567 -7.14888e-05 -6.06185e-21)
(0.0628383 -7.16327e-05 -3.75941e-20)
(0.0630371 -7.17626e-05 -1.67174e-19)
(0.063484 -7.13095e-05 7.78691e-21)
(0.0626719 -7.14569e-05 -1.48096e-21)
(0.0627168 -7.2519e-05 5.68327e-23)
(0.0613238 2.39735e-06 1.17931e-19)
(0.0633115 -7.11394e-05 -2.86046e-20)
(0.0625058 -7.12899e-05 1.18844e-22)
(0.0625481 -7.23469e-05 -1.24283e-21)
(0.0627228 -7.24891e-05 1.21659e-19)
(0.0631389 -6.7616e-05 -7.61552e-21)
(0.0623395 -6.79019e-05 -8.12933e-20)
(0.0623791 -6.89105e-05 1.42119e-21)
(0.0625535 -6.9047e-05 7.9944e-20)
(0.0629657 -5.38322e-05 8.93481e-21)
(0.0621726 -5.46055e-05 -5.03883e-22)
(0.0622095 -5.5397e-05 -3.92097e-22)
(0.0623836 -5.55077e-05 -6.54744e-22)
(0.0627947 -4.5031e-05 1.16952e-20)
(0.0620079 -4.61137e-05 -7.90216e-20)
(0.0620421 -4.67705e-05 8.65985e-20)
(0.0622153 -4.68394e-05 7.9686e-22)
(0.0626202 -4.02383e-05 -4.02424e-21)
(0.0618394 -4.14815e-05 -1.18294e-19)
(0.0618709 -4.20562e-05 -1.14808e-19)
(0.0618776 -4.26691e-05 1.3097e-19)
(0.0613607 2.55308e-06 7.67083e-19)
(0.0624584 -3.99458e-05 9.79752e-21)
(0.0616845 -4.11913e-05 -1.18991e-19)
(0.0617135 -4.17505e-05 8.17664e-20)
(0.061718 -4.23487e-05 1.92855e-19)
(0.0618923 -4.25565e-05 1.148e-19)
(0.0622864 -4.52449e-05 2.38428e-20)
(0.0615186 -4.62916e-05 -6.80883e-22)
(0.061545 -4.69345e-05 1.66884e-22)
(0.0615473 -4.76342e-05 -8.13911e-23)
(0.0617429 -4.93554e-05 -1.21097e-19)
(0.0621185 -5.47307e-05 8.79586e-23)
(0.0613566 -5.54098e-05 1.14934e-19)
(0.0613805 -5.61948e-05 -5.29218e-21)
(0.0615527 -5.62959e-05 -2.05647e-19)
)
;

boundaryField
{
    inlet
    {
        type            calculated;
        value           uniform (0.0741049 0 0);
    }
    outlet2
    {
        type            calculated;
        value           uniform (0.0741049 0 0);
    }
    outlet1
    {
        type            calculated;
        value           nonuniform List<vector> 0();
    }
    wall
    {
        type            calculated;
        value           uniform (0.0741049 0 0);
    }
    symmetryBottom
    {
        type            symmetry;
    }
    symmetryZ0
    {
        type            symmetry;
    }
    symmetryZ05
    {
        type            symmetry;
    }
    procBoundary1to0
    {
        type            processor;
        value           uniform (0.0741049 0 0);
    }
}


// ************************************************************************* //
