/*--------------------------------*- C++ -*----------------------------------*\
| =========                 |                                                 |
| \\      /  F ield         | OpenFOAM: The Open Source CFD Toolbox           |
|  \\    /   O peration     | Version:  2412                                  |
|   \\  /    A nd           | Website:  www.openfoam.com                      |
|    \\/     M anipulation  |                                                 |
\*---------------------------------------------------------------------------*/
FoamFile
{
    version     2.0;
    format      ascii;
    arch        "LSB;label=32;scalar=64";
    class       volVectorField;
    location    "2.9e-06";
    object      U;
}
// * * * * * * * * * * * * * * * * * * * * * * * * * * * * * * * * * * * * * //

dimensions      [0 0 0 0 0 0 0];

internalField   nonuniform List<vector> 
84
(
(2636.39 -0.00520861 0)
(2626.54 -0.0215037 0)
(2629.27 -0.0172267 -4.91245e-15)
(2636.39 -2.58131 0)
(2626.54 -2.9731 0)
(2629.27 -2.92029 -4.64832e-15)
(2636.39 -2.57592 0)
(2626.54 -2.96667 0)
(2629.27 -2.914 6.49024e-15)
(2636.39 -2.57592 0)
(2626.54 -2.96667 0)
(2629.27 -2.914 -8.50893e-15)
(2636.39 -2.57592 0)
(2626.54 -2.96667 0)
(2629.27 -2.914 -1.42967e-14)
(2636.39 -2.57592 0)
(2626.54 -2.96667 0)
(2629.27 -2.914 8.24439e-15)
(2636.39 -2.57592 0)
(2626.54 -2.96667 0)
(2629.27 -2.914 -1.05262e-14)
(2636.39 -2.57592 0)
(2626.54 -2.96667 0)
(2629.27 -2.914 -1.24549e-14)
(2636.39 -2.57592 0)
(2626.54 -2.96667 0)
(2629.27 -2.914 4.73587e-15)
(2636.39 -2.57592 0)
(2626.54 -2.96667 0)
(2629.27 -2.914 -1.04392e-14)
(2636.39 -2.57593 0)
(2626.54 -2.96661 0)
(2629.27 -2.91396 -2.5612e-14)
(2636.39 -2.57628 0)
(2626.54 -2.95205 0)
(2629.27 -2.90345 0)
(2633.22 3.03549 1.721e-16)
(2632.85 2.9591 3.26592e-15)
(2632.92 2.96074 3.26017e-16)
(2634.22 -2.95757 1.61567e-16)
(2633.82 -3.00185 3.40418e-15)
(2633.88 -2.99928 -4.2293e-17)
(2634.18 -2.95828 -2.50845e-16)
(2633.78 -3.00238 -1.5757e-15)
(2633.84 -2.99842 -6.98495e-15)
(2634.13 -2.95884 3.23102e-16)
(2633.74 -3.00292 -6.2236e-17)
(2633.76 -3.04539 2.38666e-18)
(2633.39 0.102948 5.06423e-15)
(2634.09 -2.95977 -1.1901e-15)
(2633.69 -3.00381 5.0075e-18)
(2633.72 -3.04632 -5.23318e-17)
(2633.76 -3.04386 5.10852e-15)
(2634.03 -2.82081 -3.17704e-16)
(2633.64 -2.86863 -3.43437e-15)
(2633.66 -2.90942 6.0003e-17)
(2633.7 -2.9071 3.3659e-15)
(2633.94 -2.25187 3.73754e-16)
(2633.54 -2.31301 -2.13437e-17)
(2633.56 -2.34516 -1.65989e-17)
(2633.61 -2.34333 -2.76409e-17)
(2633.87 -1.88879 4.90547e-16)
(2633.48 -1.95845 -3.35605e-15)
(2633.5 -1.98527 3.67584e-15)
(2633.54 -1.98268 3.37306e-17)
(2633.81 -1.69243 -1.6926e-16)
(2633.4 -1.76647 -5.03749e-15)
(2633.42 -1.79005 -4.8866e-15)
(2633.42 -1.81594 5.57388e-15)
(2633.38 0.109569 3.29205e-14)
(2633.82 -1.68448 4.13154e-16)
(2633.45 -1.75855 -5.07999e-15)
(2633.47 -1.7816 3.48918e-15)
(2633.47 -1.807 8.22903e-15)
(2633.52 -1.81078 4.88474e-15)
(2633.8 -1.91319 1.0082e-15)
(2633.42 -1.9816 -2.91465e-17)
(2633.44 -2.00827 7.14077e-18)
(2633.44 -2.03814 -3.4825e-18)
(2633.49 -2.10513 -5.16509e-15)
(2633.77 -2.32053 3.72937e-18)
(2633.39 -2.37816 4.93291e-15)
(2633.41 -2.41093 -2.27051e-16)
(2633.46 -2.40855 -8.79836e-15)
)
;

boundaryField
{
    inlet
    {
        type            calculated;
        value           uniform (0 0 0);
    }
    outlet2
    {
        type            calculated;
        value           uniform (0 0 0);
    }
    outlet1
    {
        type            calculated;
        value           nonuniform List<vector> 0();
    }
    wall
    {
        type            calculated;
        value           uniform (0 0 0);
    }
    symmetryBottom
    {
        type            symmetry;
    }
    symmetryZ0
    {
        type            symmetry;
    }
    symmetryZ05
    {
        type            symmetry;
    }
    procBoundary1to0
    {
        type            processor;
        value           uniform (0 0 0);
    }
}


// ************************************************************************* //
