/*--------------------------------*- C++ -*----------------------------------*\
| =========                 |                                                 |
| \\      /  F ield         | OpenFOAM: The Open Source CFD Toolbox           |
|  \\    /   O peration     | Version:  2412                                  |
|   \\  /    A nd           | Website:  www.openfoam.com                      |
|    \\/     M anipulation  |                                                 |
\*---------------------------------------------------------------------------*/
FoamFile
{
    version     2.0;
    format      ascii;
    arch        "LSB;label=32;scalar=64";
    class       volScalarField;
    location    "3.1e-06";
    object      E_dof0;
}
// * * * * * * * * * * * * * * * * * * * * * * * * * * * * * * * * * * * * * //

dimensions      [0 0 0 0 0 0 0];

internalField   nonuniform List<scalar> 
84
(
98.8661
80.352
81.2792
81.2505
81.2527
81.2541
81.2557
81.5299
101.735
82.7361
83.7241
83.7318
83.7722
83.8131
83.8554
84.1361
101.305
82.6086
83.4641
83.4755
83.5117
83.5484
83.5864
83.8664
101.071
82.2762
83.2501
83.2511
83.2845
83.3182
83.5975
100.887
82.0236
82.9949
82.9919
83.0211
83.0505
83.3293
100.59
81.7763
82.7412
82.7343
82.7594
82.7846
83.0627
100.3
81.5348
82.4931
82.4824
82.5036
82.5246
82.802
99.9418
81.3629
82.2449
82.2347
82.2518
82.2688
82.5456
99.7059
81.0943
82.0394
82.022
82.036
82.3122
99.3905
80.7773
81.7165
81.6943
81.7032
81.9786
99.0764
80.5455
81.4764
81.4504
81.4554
81.7302
98.5069
80.3406
81.2264
81.1987
81.1997
81.2
81.4742
)
;

boundaryField
{
    inlet
    {
        type            calculated;
        value           nonuniform List<scalar> 0();
    }
    outlet2
    {
        type            calculated;
        value           uniform 99.4306;
    }
    outlet1
    {
        type            calculated;
        value           uniform 99.4306;
    }
    wall
    {
        type            calculated;
        value           uniform 99.4306;
    }
    symmetryBottom
    {
        type            symmetry;
    }
    symmetryZ0
    {
        type            symmetry;
    }
    symmetryZ05
    {
        type            symmetry;
    }
    procBoundary0to1
    {
        type            processor;
        value           uniform 99.4306;
    }
}


// ************************************************************************* //
