/*--------------------------------*- C++ -*----------------------------------*\
| =========                 |                                                 |
| \\      /  F ield         | OpenFOAM: The Open Source CFD Toolbox           |
|  \\    /   O peration     | Version:  2412                                  |
|   \\  /    A nd           | Website:  www.openfoam.com                      |
|    \\/     M anipulation  |                                                 |
\*---------------------------------------------------------------------------*/
FoamFile
{
    version     2.0;
    format      ascii;
    arch        "LSB;label=32;scalar=64";
    class       volScalarField;
    location    "3.1e-06";
    object      rho_dof0;
}
// * * * * * * * * * * * * * * * * * * * * * * * * * * * * * * * * * * * * * //

dimensions      [0 0 0 0 0 0 0];

internalField   nonuniform List<scalar> 
84
(
2.79612e-05
2.27815e-05
2.3038e-05
2.30303e-05
2.3031e-05
2.30315e-05
2.3032e-05
2.31088e-05
2.87551e-05
2.34424e-05
2.37157e-05
2.3718e-05
2.37294e-05
2.37408e-05
2.37526e-05
2.38312e-05
2.86353e-05
2.34063e-05
2.3643e-05
2.36463e-05
2.36564e-05
2.36667e-05
2.36773e-05
2.37557e-05
2.85698e-05
2.33136e-05
2.3583e-05
2.35835e-05
2.35928e-05
2.36022e-05
2.36804e-05
2.8518e-05
2.32429e-05
2.35115e-05
2.35109e-05
2.35191e-05
2.35273e-05
2.36053e-05
2.84346e-05
2.31733e-05
2.34401e-05
2.34384e-05
2.34454e-05
2.34524e-05
2.35303e-05
2.83511e-05
2.31039e-05
2.33688e-05
2.3366e-05
2.33719e-05
2.33777e-05
2.34554e-05
2.82486e-05
2.30534e-05
2.32971e-05
2.32944e-05
2.32991e-05
2.33038e-05
2.33812e-05
2.81712e-05
2.29682e-05
2.32291e-05
2.32242e-05
2.32279e-05
2.33051e-05
2.81092e-05
2.29012e-05
2.31611e-05
2.31552e-05
2.31578e-05
2.32349e-05
2.80148e-05
2.2831e-05
2.30885e-05
2.30815e-05
2.30829e-05
2.31598e-05
2.7853e-05
2.27725e-05
2.30172e-05
2.30097e-05
2.30099e-05
2.301e-05
2.30868e-05
)
;

boundaryField
{
    inlet
    {
        type            calculated;
        value           nonuniform List<scalar> 0();
    }
    outlet2
    {
        type            calculated;
        value           uniform 2.81085e-05;
    }
    outlet1
    {
        type            calculated;
        value           uniform 2.81085e-05;
    }
    wall
    {
        type            calculated;
        value           uniform 2.81085e-05;
    }
    symmetryBottom
    {
        type            symmetry;
    }
    symmetryZ0
    {
        type            symmetry;
    }
    symmetryZ05
    {
        type            symmetry;
    }
    procBoundary0to1
    {
        type            processor;
        value           uniform 2.81085e-05;
    }
}


// ************************************************************************* //
