/*--------------------------------*- C++ -*----------------------------------*\
| =========                 |                                                 |
| \\      /  F ield         | OpenFOAM: The Open Source CFD Toolbox           |
|  \\    /   O peration     | Version:  2412                                  |
|   \\  /    A nd           | Website:  www.openfoam.com                      |
|    \\/     M anipulation  |                                                 |
\*---------------------------------------------------------------------------*/
FoamFile
{
    version     2.0;
    format      ascii;
    arch        "LSB;label=32;scalar=64";
    class       volVectorField;
    location    "3.1e-06";
    object      rhoU_dof0;
}
// * * * * * * * * * * * * * * * * * * * * * * * * * * * * * * * * * * * * * //

dimensions      [0 0 0 0 0 0 0];

internalField   nonuniform List<vector> 
84
(
(0.0736938 9.06086e-05 9.30934e-20)
(0.0599665 7.51913e-05 -9.28661e-20)
(0.0606501 7.71144e-05 -2.13351e-19)
(0.0606291 7.82304e-05 1.01118e-19)
(0.0606307 7.94073e-05 -5.60431e-21)
(0.0606319 8.06196e-05 1.20227e-20)
(0.0606331 8.18694e-05 1.99102e-19)
(0.0608365 8.20756e-05 4.29109e-20)
(0.0758162 -9.38677e-05 9.70257e-20)
(0.0617316 -7.86435e-05 -9.06274e-20)
(0.0624602 -8.06026e-05 -2.53681e-19)
(0.0624661 -8.18303e-05 1.5764e-20)
(0.0624961 -8.31198e-05 -4.52578e-19)
(0.0625265 -8.445e-05 7.15691e-20)
(0.0625578 -8.58235e-05 3.66211e-19)
(0.0627659 -8.60251e-05 7.59805e-20)
(0.075498 -8.85922e-05 -4.31642e-19)
(0.0616365 -8.25939e-05 6.66091e-20)
(0.0622674 -8.01255e-05 1.29502e-19)
(0.062276 -8.16067e-05 -8.06128e-21)
(0.0623028 -8.28803e-05 -3.82635e-21)
(0.0623301 -8.42031e-05 1.86151e-19)
(0.0623582 -8.55687e-05 -1.48479e-19)
(0.0625659 -8.57699e-05 -1.85308e-19)
(0.0753242 -9.08076e-05 -4.28561e-19)
(0.0613905 -7.94937e-05 1.98228e-19)
(0.0621086 -8.13882e-05 -1.09485e-20)
(0.0621096 -8.26414e-05 -4.07037e-19)
(0.0621343 -8.3957e-05 3.85345e-19)
(0.0621593 -8.53146e-05 7.89059e-20)
(0.0623665 -8.55155e-05 -1.48197e-19)
(0.0751874 -9.45581e-05 -2.34049e-19)
(0.0612031 -7.91544e-05 -7.77148e-20)
(0.0619192 -8.11718e-05 4.11562e-21)
(0.0619173 -8.24153e-05 1.24113e-21)
(0.061939 -8.37238e-05 -1.34599e-19)
(0.0619608 -8.50739e-05 1.03463e-19)
(0.0621675 -8.52745e-05 2.66068e-19)
(0.0749658 -9.02188e-05 -1.42297e-19)
(0.0610182 -7.54423e-05 2.25111e-19)
(0.0617296 -7.73821e-05 -1.14004e-20)
(0.0617247 -7.85759e-05 2.69223e-19)
(0.0617433 -7.98327e-05 -2.4013e-19)
(0.061762 -8.11297e-05 2.06687e-19)
(0.0619682 -8.13221e-05 -4.43283e-19)
(0.0747429 -7.2533e-05 -3.12146e-23)
(0.060833 -6.06361e-05 2.21699e-19)
(0.0615393 -6.21792e-05 -1.12106e-20)
(0.0615315 -6.31358e-05 -3.6195e-22)
(0.0615471 -6.41419e-05 2.23607e-19)
(0.0615625 -6.51801e-05 3.41626e-20)
(0.0617683 -6.53357e-05 2.32513e-19)
(0.0744704 -5.71115e-05 1.7114e-21)
(0.0606988 -5.44887e-05 1.17556e-21)
(0.0613487 -5.23203e-05 -7.81524e-22)
(0.0613411 -5.33364e-05 -1.47496e-21)
(0.0613535 -5.41822e-05 -2.60267e-22)
(0.0613659 -5.50624e-05 4.96383e-22)
(0.0615712 -5.51944e-05 -1.92796e-19)
(0.0742645 -5.36453e-05 5.08752e-19)
(0.0604719 -4.67254e-05 -2.4876e-20)
(0.0611677 -4.78681e-05 -4.46413e-19)
(0.0611543 -4.8608e-05 -1.65572e-19)
(0.061164 -4.9386e-05 2.43279e-19)
(0.0613687 -4.95058e-05 -1.62669e-21)
(0.0741014 -5.54575e-05 -1.79488e-19)
(0.0602971 -4.61995e-05 8.86711e-21)
(0.06099 -4.73908e-05 -2.21078e-19)
(0.0609741 -4.81055e-05 2.31677e-19)
(0.060981 -4.88587e-05 3.90172e-19)
(0.0611853 -4.89787e-05 -2.20565e-20)
(0.0738518 -6.00995e-05 -2.42879e-19)
(0.0601114 -5.21106e-05 1.18491e-20)
(0.0607978 -5.33087e-05 -1.08537e-22)
(0.0607789 -5.41222e-05 3.9875e-19)
(0.0607826 -5.49743e-05 4.25476e-19)
(0.0609865 -5.5109e-05 2.6393e-20)
(0.073424 -4.86301e-06 -1.06602e-20)
(0.0599566 -6.58878e-05 3.37474e-22)
(0.0606094 -6.26535e-05 -7.74379e-24)
(0.0605892 -6.37816e-05 2.53795e-19)
(0.0605899 -6.47608e-05 -1.34528e-20)
(0.0605901 -6.57759e-05 4.3706e-22)
(0.0607935 -6.59392e-05 -2.34419e-19)
)
;

boundaryField
{
    inlet
    {
        type            calculated;
        value           nonuniform List<vector> 0();
    }
    outlet2
    {
        type            calculated;
        value           uniform (0.0741049 0 0);
    }
    outlet1
    {
        type            calculated;
        value           uniform (0.0741049 0 0);
    }
    wall
    {
        type            calculated;
        value           uniform (0.0741049 0 0);
    }
    symmetryBottom
    {
        type            symmetry;
    }
    symmetryZ0
    {
        type            symmetry;
    }
    symmetryZ05
    {
        type            symmetry;
    }
    procBoundary0to1
    {
        type            processor;
        value           uniform (0.0741049 0 0);
    }
}


// ************************************************************************* //
