/*--------------------------------*- C++ -*----------------------------------*\
| =========                 |                                                 |
| \\      /  F ield         | OpenFOAM: The Open Source CFD Toolbox           |
|  \\    /   O peration     | Version:  2412                                  |
|   \\  /    A nd           | Website:  www.openfoam.com                      |
|    \\/     M anipulation  |                                                 |
\*---------------------------------------------------------------------------*/
FoamFile
{
    version     2.0;
    format      ascii;
    arch        "LSB;label=32;scalar=64";
    class       volScalarField;
    location    "8e-06";
    object      T;
}
// * * * * * * * * * * * * * * * * * * * * * * * * * * * * * * * * * * * * * //

dimensions      [0 0 0 0 0 0 0];

internalField   nonuniform List<scalar> 
84
(
204.866
204.895
205.095
205.15
205.232
205.315
205.4
205.389
199.965
199.891
200.016
199.994
199.997
199.996
199.996
199.997
199.933
199.892
200.013
199.995
199.997
199.996
199.996
199.997
199.981
199.884
200.017
199.994
199.997
199.996
199.997
199.977
199.891
200.025
200.002
200.005
200.005
200.006
200.569
200.547
200.666
200.647
200.652
200.655
200.654
204.296
204.414
204.568
204.619
204.691
204.764
204.753
207.544
208.248
208.226
208.372
208.505
208.645
208.623
221.288
225.452
225.307
225.831
226.336
226.246
191.102
190.898
190.89
190.716
190.564
190.586
197.682
197.767
197.817
197.761
197.725
197.731
199.738
198.913
199.115
199.072
199.059
199.043
199.047
)
;

boundaryField
{
    inlet
    {
        type            calculated;
        value           nonuniform List<scalar> 0();
    }
    outlet2
    {
        type            calculated;
        value           uniform 0;
    }
    outlet1
    {
        type            calculated;
        value           uniform 0;
    }
    wall
    {
        type            calculated;
        value           uniform 0;
    }
    symmetryBottom
    {
        type            symmetry;
    }
    symmetryZ0
    {
        type            symmetry;
    }
    symmetryZ05
    {
        type            symmetry;
    }
    procBoundary0to1
    {
        type            processor;
        value           uniform 0;
    }
}


// ************************************************************************* //
