/*--------------------------------*- C++ -*----------------------------------*\
| =========                 |                                                 |
| \\      /  F ield         | OpenFOAM: The Open Source CFD Toolbox           |
|  \\    /   O peration     | Version:  2412                                  |
|   \\  /    A nd           | Website:  www.openfoam.com                      |
|    \\/     M anipulation  |                                                 |
\*---------------------------------------------------------------------------*/
FoamFile
{
    version     2.0;
    format      ascii;
    arch        "LSB;label=32;scalar=64";
    class       volVectorField;
    location    "8e-06";
    object      U;
}
// * * * * * * * * * * * * * * * * * * * * * * * * * * * * * * * * * * * * * //

dimensions      [0 0 0 0 0 0 0];

internalField   nonuniform List<vector> 
84
(
(2633.5 8.08335 8.46347e-15)
(2623.51 8.23556 -1.36105e-14)
(2626.94 8.3409 -1.88461e-14)
(2626.53 8.46064 1.24641e-14)
(2626.54 8.58276 -2.48576e-15)
(2626.51 8.70851 1.81978e-15)
(2626.48 8.83798 1.81848e-14)
(2626.66 8.81975 1.42382e-15)
(2636.15 -8.39255 7.57964e-15)
(2626.38 -8.72407 -1.24935e-14)
(2629.78 -8.7609 -2.35031e-14)
(2629.41 -8.90466 3.84095e-15)
(2629.46 -9.03962 -4.42507e-14)
(2629.48 -9.17992 1.19711e-14)
(2629.5 -9.32456 3.5641e-14)
(2629.66 -9.30241 5.81822e-15)
(2635.85 -7.4326 -3.03317e-14)
(2626.76 -10.2743 1.14202e-14)
(2629.56 -8.53267 1.2173e-14)
(2629.3 -8.9279 -2.14531e-15)
(2629.34 -9.03998 -7.66662e-16)
(2629.35 -9.18183 1.71327e-14)
(2629.37 -9.32646 -1.48402e-14)
(2629.53 -9.30429 -1.58428e-14)
(2635.77 -7.7964 -2.88161e-14)
(2626.18 -8.93095 2.32061e-14)
(2629.55 -8.89575 -3.06656e-15)
(2629.18 -9.04407 -3.97249e-14)
(2629.23 -9.18363 4.09412e-14)
(2629.24 -9.32844 5.69601e-15)
(2629.4 -9.30625 -1.47659e-14)
(2635.82 -8.5452 -1.64486e-14)
(2626.01 -8.82389 -6.72311e-15)
(2629.43 -8.90772 1.01901e-15)
(2629.05 -9.04931 3.10017e-16)
(2629.1 -9.18938 -1.32017e-14)
(2629.11 -9.33435 1.20192e-14)
(2629.27 -9.31212 2.55511e-14)
(2635.68 -8.31616 -1.14625e-14)
(2625.84 -8.56789 2.44304e-14)
(2629.26 -8.65968 -3.25029e-15)
(2628.89 -8.80061 2.63919e-14)
(2628.93 -8.94098 -2.49856e-14)
(2628.94 -9.08634 2.07587e-14)
(2629.1 -9.06455 -4.29916e-14)
(2635.41 -6.68358 -5.02835e-18)
(2625.48 -6.9161 2.1875e-14)
(2628.92 -6.96724 -3.06632e-15)
(2628.54 -7.08381 1.97608e-16)
(2628.58 -7.1962 2.16815e-14)
(2628.58 -7.31293 1.9526e-15)
(2628.75 -7.29549 2.11618e-14)
(2635.16 -4.8375 3.60802e-16)
(2625.45 -7.25096 5.0629e-16)
(2628.64 -5.7772 -1.6468e-16)
(2628.3 -6.094 -4.18928e-16)
(2628.33 -6.17269 -7.35115e-17)
(2628.33 -6.2762 2.12879e-16)
(2628.5 -6.26085 -1.63953e-14)
(2634.88 -4.67058 4.36545e-14)
(2624.75 -5.35276 -9.38351e-15)
(2628.27 -5.34157 -4.54795e-14)
(2627.86 -5.43189 -1.19314e-14)
(2627.89 -5.51829 2.60115e-14)
(2628.06 -5.5054 -4.3092e-15)
(2635.11 -4.95945 -1.49814e-14)
(2625.47 -5.09121 3.35549e-15)
(2628.82 -5.14628 -2.1023e-14)
(2628.44 -5.22481 2.43001e-14)
(2628.48 -5.30338 3.86947e-14)
(2628.64 -5.29175 -5.49035e-15)
(2635.03 -5.17564 -1.80753e-14)
(2625.25 -5.98253 4.45208e-15)
(2628.63 -5.88647 -2.81171e-16)
(2628.25 -5.99285 4.0881e-14)
(2628.28 -6.08477 4.04701e-14)
(2628.45 -6.07103 3.81777e-16)
(2634.89 -0.974991 -1.83359e-15)
(2625.2 -8.55904 2.98314e-16)
(2628.53 -6.79304 -1.82063e-17)
(2628.16 -7.08066 2.56911e-14)
(2628.19 -7.17437 -3.81875e-15)
(2628.19 -7.28623 3.51577e-16)
(2628.35 -7.26997 -2.05867e-14)
)
;

boundaryField
{
    inlet
    {
        type            calculated;
        value           nonuniform List<vector> 0();
    }
    outlet2
    {
        type            calculated;
        value           uniform (0 0 0);
    }
    outlet1
    {
        type            calculated;
        value           uniform (0 0 0);
    }
    wall
    {
        type            calculated;
        value           uniform (0 0 0);
    }
    symmetryBottom
    {
        type            symmetry;
    }
    symmetryZ0
    {
        type            symmetry;
    }
    symmetryZ05
    {
        type            symmetry;
    }
    procBoundary0to1
    {
        type            processor;
        value           uniform (0 0 0);
    }
}


// ************************************************************************* //
