/*--------------------------------*- C++ -*----------------------------------*\
| =========                 |                                                 |
| \\      /  F ield         | OpenFOAM: The Open Source CFD Toolbox           |
|  \\    /   O peration     | Version:  2412                                  |
|   \\  /    A nd           | Website:  www.openfoam.com                      |
|    \\/     M anipulation  |                                                 |
\*---------------------------------------------------------------------------*/
FoamFile
{
    version     2.0;
    format      ascii;
    arch        "LSB;label=32;scalar=64";
    class       volScalarField;
    location    "5.1e-06";
    object      rho_dof0;
}
// * * * * * * * * * * * * * * * * * * * * * * * * * * * * * * * * * * * * * //

dimensions      [0 0 0 0 0 0 0];

internalField   nonuniform List<scalar> 
84
(
2.81101e-05
9.4085e-06
1.28942e-05
2.81166e-05
9.41504e-06
1.29002e-05
2.8115e-05
9.4142e-06
1.28992e-05
2.8115e-05
9.4142e-06
1.28992e-05
2.8115e-05
9.4142e-06
1.28992e-05
2.8115e-05
9.4142e-06
1.28992e-05
2.8115e-05
9.4142e-06
1.28992e-05
2.8115e-05
9.4142e-06
1.28992e-05
2.8115e-05
9.4142e-06
1.28992e-05
2.8115e-05
9.4142e-06
1.28992e-05
2.8115e-05
9.41419e-06
1.28992e-05
2.8115e-05
9.41275e-06
1.28983e-05
2.09752e-05
2.02178e-05
2.03633e-05
2.19795e-05
2.11396e-05
2.12942e-05
2.18734e-05
2.10422e-05
2.11949e-05
2.17678e-05
2.09452e-05
2.10044e-05
2.01671e-05
2.16625e-05
2.08485e-05
2.09057e-05
2.10096e-05
2.15572e-05
2.07518e-05
2.08071e-05
2.09106e-05
2.14521e-05
2.06555e-05
2.07087e-05
2.08119e-05
2.13487e-05
2.05605e-05
2.06118e-05
2.07141e-05
2.12409e-05
2.04617e-05
2.05109e-05
2.05133e-05
2.02073e-05
2.11459e-05
2.03743e-05
2.04217e-05
2.04229e-05
2.05265e-05
2.10403e-05
2.02774e-05
2.03228e-05
2.03229e-05
2.04505e-05
2.09396e-05
2.01848e-05
2.02284e-05
2.03297e-05
)
;

boundaryField
{
    inlet
    {
        type            calculated;
        value           uniform 2.81085e-05;
    }
    outlet2
    {
        type            calculated;
        value           uniform 2.81085e-05;
    }
    outlet1
    {
        type            calculated;
        value           nonuniform List<scalar> 0();
    }
    wall
    {
        type            calculated;
        value           uniform 2.81085e-05;
    }
    symmetryBottom
    {
        type            symmetry;
    }
    symmetryZ0
    {
        type            symmetry;
    }
    symmetryZ05
    {
        type            symmetry;
    }
    procBoundary1to0
    {
        type            processor;
        value           uniform 2.81085e-05;
    }
}


// ************************************************************************* //
