/*--------------------------------*- C++ -*----------------------------------*\
| =========                 |                                                 |
| \\      /  F ield         | OpenFOAM: The Open Source CFD Toolbox           |
|  \\    /   O peration     | Version:  2412                                  |
|   \\  /    A nd           | Website:  www.openfoam.com                      |
|    \\/     M anipulation  |                                                 |
\*---------------------------------------------------------------------------*/
FoamFile
{
    version     2.0;
    format      ascii;
    arch        "LSB;label=32;scalar=64";
    class       volVectorField;
    location    "5.1e-06";
    object      U;
}
// * * * * * * * * * * * * * * * * * * * * * * * * * * * * * * * * * * * * * //

dimensions      [0 0 0 0 0 0 0];

internalField   nonuniform List<vector> 
84
(
(2636.39 -0.015054 0)
(2610.78 -0.0625112 0)
(2625.13 -0.0376438 -9.20307e-15)
(2636.39 -4.1594 0)
(2610.78 -5.50298 0)
(2625.13 -5.08269 -8.89592e-15)
(2636.39 -4.14476 0)
(2610.78 -5.48195 0)
(2625.13 -5.06377 1.20432e-14)
(2636.39 -4.14476 0)
(2610.78 -5.48195 0)
(2625.13 -5.06376 -1.57422e-14)
(2636.39 -4.14476 0)
(2610.78 -5.48195 0)
(2625.13 -5.06376 -2.42103e-14)
(2636.39 -4.14476 0)
(2610.78 -5.48195 0)
(2625.13 -5.06376 1.53719e-14)
(2636.39 -4.14476 0)
(2610.78 -5.48195 0)
(2625.13 -5.06376 -1.74973e-14)
(2636.39 -4.14476 0)
(2610.78 -5.48195 0)
(2625.13 -5.06376 -2.02164e-14)
(2636.39 -4.14476 0)
(2610.78 -5.48195 0)
(2625.13 -5.06376 9.0766e-15)
(2636.39 -4.14476 0)
(2610.78 -5.48195 0)
(2625.13 -5.06376 -1.75013e-14)
(2636.39 -4.14477 0)
(2610.78 -5.48165 0)
(2625.13 -5.06363 -4.66696e-14)
(2636.39 -4.14529 0)
(2610.78 -5.4431 0)
(2625.13 -5.04685 0)
(2631.18 5.37663 5.28144e-16)
(2630.1 5.11657 5.99312e-15)
(2630.29 5.13026 6.12868e-16)
(2632.98 -5.19892 4.85413e-16)
(2631.8 -5.27986 6.22872e-15)
(2632 -5.27172 -1.43125e-16)
(2632.9 -5.20067 -6.92732e-16)
(2631.73 -5.28077 -2.91569e-15)
(2631.92 -5.268 -1.06987e-14)
(2632.82 -5.20172 8.92967e-16)
(2631.66 -5.28173 -1.49046e-16)
(2631.77 -5.35579 9.31772e-18)
(2631.07 0.34374 9.72197e-15)
(2632.74 -5.20414 -1.52938e-15)
(2631.58 -5.28396 3.84601e-17)
(2631.7 -5.35811 -9.566e-17)
(2631.78 -5.35083 9.86728e-15)
(2632.63 -4.98929 -8.86927e-16)
(2631.48 -5.08071 -6.07618e-15)
(2631.59 -5.15237 3.34567e-16)
(2631.67 -5.14545 6.58743e-15)
(2632.45 -3.95938 1.07022e-15)
(2631.3 -4.09689 -9.92225e-17)
(2631.41 -4.15069 -9.23955e-18)
(2631.49 -4.14528 -5.21138e-17)
(2632.33 -3.32123 1.32715e-15)
(2631.17 -3.48693 -6.26209e-15)
(2631.28 -3.53033 6.77168e-15)
(2631.36 -3.52223 8.79754e-17)
(2632.2 -2.93553 -5.04946e-16)
(2630.99 -3.11817 -9.40418e-15)
(2631.11 -3.15398 -8.69909e-15)
(2631.1 -3.19994 1.03042e-14)
(2631.05 0.362367 5.63574e-14)
(2632.27 -2.88248 1.14561e-15)
(2631.19 -3.06772 -9.17354e-15)
(2631.29 -3.10123 6.58428e-15)
(2631.29 -3.14527 1.28885e-14)
(2631.38 -3.15947 8.16502e-15)
(2632.21 -3.31118 2.83387e-15)
(2631.11 -3.47559 -1.62423e-16)
(2631.21 -3.51715 1.80999e-17)
(2631.21 -3.5712 -1.51393e-17)
(2631.31 -3.79433 -9.8691e-15)
(2632.16 -4.03672 6.61608e-18)
(2631.06 -4.16438 9.06752e-15)
(2631.16 -4.21839 -7.54252e-16)
(2631.24 -4.21116 -1.29976e-14)
)
;

boundaryField
{
    inlet
    {
        type            calculated;
        value           uniform (0 0 0);
    }
    outlet2
    {
        type            calculated;
        value           uniform (0 0 0);
    }
    outlet1
    {
        type            calculated;
        value           nonuniform List<vector> 0();
    }
    wall
    {
        type            calculated;
        value           uniform (0 0 0);
    }
    symmetryBottom
    {
        type            symmetry;
    }
    symmetryZ0
    {
        type            symmetry;
    }
    symmetryZ05
    {
        type            symmetry;
    }
    procBoundary1to0
    {
        type            processor;
        value           uniform (0 0 0);
    }
}


// ************************************************************************* //
