/*--------------------------------*- C++ -*----------------------------------*\
| =========                 |                                                 |
| \\      /  F ield         | OpenFOAM: The Open Source CFD Toolbox           |
|  \\    /   O peration     | Version:  2412                                  |
|   \\  /    A nd           | Website:  www.openfoam.com                      |
|    \\/     M anipulation  |                                                 |
\*---------------------------------------------------------------------------*/
FoamFile
{
    version     2.0;
    format      ascii;
    arch        "LSB;label=32;scalar=64";
    class       volScalarField;
    location    "4.3e-06";
    object      E_dof0;
}
// * * * * * * * * * * * * * * * * * * * * * * * * * * * * * * * * * * * * * //

dimensions      [0 0 0 0 0 0 0];

internalField   nonuniform List<scalar> 
84
(
98.2267
73.5069
75.239
75.162
75.1671
75.1695
75.1721
75.5311
102.186
76.539
78.3833
78.3513
78.4057
78.459
78.514
78.8849
101.524
76.454
78.0354
78.0196
78.0677
78.1156
78.165
78.5346
101.21
75.9533
77.7688
77.7285
77.7737
77.8174
78.1859
101.007
75.6249
77.4385
77.3929
77.4327
77.4709
77.8382
100.595
75.3081
77.1098
77.0593
77.0937
77.1264
77.4924
100.191
74.9991
76.7884
76.7332
76.7623
76.7896
77.1545
99.6618
74.8238
76.4623
76.4142
76.4377
76.4597
76.8235
99.335
74.4371
76.2
76.1365
76.1564
76.519
98.9367
74.0371
75.7912
75.7216
75.7351
76.0962
98.4835
73.7424
75.4791
75.4051
75.4134
75.7733
97.7058
73.5044
75.1565
75.0834
75.0864
75.0869
75.4458
)
;

boundaryField
{
    inlet
    {
        type            calculated;
        value           nonuniform List<scalar> 0();
    }
    outlet2
    {
        type            calculated;
        value           uniform 99.4306;
    }
    outlet1
    {
        type            calculated;
        value           uniform 99.4306;
    }
    wall
    {
        type            calculated;
        value           uniform 99.4306;
    }
    symmetryBottom
    {
        type            symmetry;
    }
    symmetryZ0
    {
        type            symmetry;
    }
    symmetryZ05
    {
        type            symmetry;
    }
    procBoundary0to1
    {
        type            processor;
        value           uniform 99.4306;
    }
}


// ************************************************************************* //
