/*--------------------------------*- C++ -*----------------------------------*\
| =========                 |                                                 |
| \\      /  F ield         | OpenFOAM: The Open Source CFD Toolbox           |
|  \\    /   O peration     | Version:  2412                                  |
|   \\  /    A nd           | Website:  www.openfoam.com                      |
|    \\/     M anipulation  |                                                 |
\*---------------------------------------------------------------------------*/
FoamFile
{
    version     2.0;
    format      ascii;
    arch        "LSB;label=32;scalar=64";
    class       volScalarField;
    location    "4.3e-06";
    object      T;
}
// * * * * * * * * * * * * * * * * * * * * * * * * * * * * * * * * * * * * * //

dimensions      [0 0 0 0 0 0 0];

internalField   nonuniform List<scalar> 
84
(
202.611
202.657
202.72
202.758
202.801
202.844
202.89
202.887
199.988
199.977
200.001
199.998
199.998
199.998
199.998
199.999
199.976
199.978
200
199.998
199.998
199.998
199.998
199.998
199.99
199.977
200.001
199.998
199.998
199.998
199.998
199.991
199.979
200.004
200.001
200.001
200.001
200.001
200.413
200.425
200.452
200.454
200.46
200.465
200.464
202.336
202.409
202.462
202.497
202.535
202.575
202.572
204.061
204.318
204.349
204.419
204.489
204.561
204.555
210.95
212.137
212.275
212.484
212.699
212.678
195.388
195.269
195.225
195.145
195.065
195.072
198.838
198.861
198.863
198.842
198.823
198.825
199.91
199.496
199.532
199.521
199.514
199.506
199.507
)
;

boundaryField
{
    inlet
    {
        type            calculated;
        value           nonuniform List<scalar> 0();
    }
    outlet2
    {
        type            calculated;
        value           uniform 0;
    }
    outlet1
    {
        type            calculated;
        value           uniform 0;
    }
    wall
    {
        type            calculated;
        value           uniform 0;
    }
    symmetryBottom
    {
        type            symmetry;
    }
    symmetryZ0
    {
        type            symmetry;
    }
    symmetryZ05
    {
        type            symmetry;
    }
    procBoundary0to1
    {
        type            processor;
        value           uniform 0;
    }
}


// ************************************************************************* //
