/*--------------------------------*- C++ -*----------------------------------*\
| =========                 |                                                 |
| \\      /  F ield         | OpenFOAM: The Open Source CFD Toolbox           |
|  \\    /   O peration     | Version:  2412                                  |
|   \\  /    A nd           | Website:  www.openfoam.com                      |
|    \\/     M anipulation  |                                                 |
\*---------------------------------------------------------------------------*/
FoamFile
{
    version     2.0;
    format      ascii;
    arch        "LSB;label=32;scalar=64";
    class       volVectorField;
    location    "4.3e-06";
    object      U;
}
// * * * * * * * * * * * * * * * * * * * * * * * * * * * * * * * * * * * * * //

dimensions      [0 0 0 0 0 0 0];

internalField   nonuniform List<vector> 
84
(
(2635.14 4.45859 4.47161e-15)
(2630.4 4.54164 -5.96194e-15)
(2631.17 4.60451 -1.16938e-14)
(2631.11 4.6722 6.42639e-15)
(2631.1 4.74173 -5.65907e-16)
(2631.08 4.81337 7.68861e-16)
(2631.07 4.88719 1.111e-14)
(2631.15 4.88173 1.92177e-15)
(2636.58 -4.52442 4.46472e-15)
(2631.91 -4.65891 -5.70734e-15)
(2632.69 -4.71383 -1.38205e-14)
(2632.65 -4.78576 1.2146e-15)
(2632.67 -4.85882 -2.58509e-14)
(2632.68 -4.9342 4.87507e-15)
(2632.69 -5.01195 2.0677e-14)
(2632.77 -5.00549 4.11557e-15)
(2636.45 -4.20854 -1.8891e-14)
(2631.95 -5.02108 4.40801e-15)
(2632.61 -4.68443 7.79794e-15)
(2632.59 -4.78814 -6.39591e-16)
(2632.6 -4.85972 -2.78692e-16)
(2632.61 -4.93518 1.04139e-14)
(2632.62 -5.01296 -9.03542e-15)
(2632.7 -5.0065 -1.0191e-14)
(2636.4 -4.34598 -1.84166e-14)
(2631.8 -4.74059 1.15632e-14)
(2632.57 -4.78651 -8.93172e-16)
(2632.53 -4.86078 -2.32224e-14)
(2632.54 -4.93618 2.23361e-14)
(2632.55 -5.01399 4.26062e-15)
(2632.63 -5.00752 -9.01488e-15)
(2636.4 -4.59765 -1.10814e-14)
(2631.72 -4.72742 -4.25779e-15)
(2632.5 -4.78897 3.27294e-16)
(2632.46 -4.8628 1.00193e-16)
(2632.47 -4.93828 -8.29881e-15)
(2632.48 -5.01616 6.39176e-15)
(2632.56 -5.00968 1.46309e-14)
(2636.32 -4.41761 -6.77542e-15)
(2631.63 -4.53652 1.28165e-14)
(2632.41 -4.59755 -9.42859e-16)
(2632.37 -4.66943 1.50834e-14)
(2632.38 -4.74301 -1.35799e-14)
(2632.38 -4.81898 1.17318e-14)
(2632.46 -4.8128 -2.50593e-14)
(2636.18 -3.55961 -1.93408e-18)
(2631.47 -3.65711 1.24835e-14)
(2632.25 -3.70423 -9.27359e-16)
(2632.2 -3.76227 -9.17358e-19)
(2632.21 -3.82149 1.262e-14)
(2632.21 -3.88263 1.72816e-15)
(2632.29 -3.8777 1.25404e-14)
(2636.07 -2.74797 1.18725e-16)
(2631.4 -3.40236 1.11066e-16)
(2632.13 -3.12186 -5.29059e-17)
(2632.09 -3.19773 -1.21472e-16)
(2632.09 -3.24727 -2.49898e-17)
(2632.1 -3.29977 5.00422e-17)
(2632.18 -3.29557 -1.09909e-14)
(2635.96 -2.60489 2.39611e-14)
(2631.21 -2.83087 -2.2063e-15)
(2632 -2.86141 -2.62103e-14)
(2631.95 -2.90663 -9.58036e-15)
(2631.95 -2.95274 1.42584e-14)
(2632.03 -2.9491 -8.96093e-16)
(2636.01 -2.71961 -8.64012e-15)
(2631.37 -2.78315 7.92561e-16)
(2632.13 -2.82122 -1.22884e-14)
(2632.09 -2.86434 1.33091e-14)
(2632.09 -2.90854 2.25261e-14)
(2632.17 -2.90508 -1.84157e-15)
(2635.97 -2.92469 -1.20785e-14)
(2631.29 -3.1696 1.0737e-15)
(2632.07 -3.19424 -2.52699e-17)
(2632.02 -3.24461 2.34199e-14)
(2632.02 -3.29533 2.44447e-14)
(2632.1 -3.29135 1.15336e-15)
(2635.89 -0.322135 -6.88857e-16)
(2631.26 -4.13311 4.22925e-17)
(2632.02 -3.75279 -1.36759e-18)
(2631.97 -3.83417 1.45714e-14)
(2631.97 -3.89216 -1.11732e-15)
(2631.97 -3.95299 5.24708e-17)
(2632.05 -3.94834 -1.25471e-14)
)
;

boundaryField
{
    inlet
    {
        type            calculated;
        value           nonuniform List<vector> 0();
    }
    outlet2
    {
        type            calculated;
        value           uniform (0 0 0);
    }
    outlet1
    {
        type            calculated;
        value           uniform (0 0 0);
    }
    wall
    {
        type            calculated;
        value           uniform (0 0 0);
    }
    symmetryBottom
    {
        type            symmetry;
    }
    symmetryZ0
    {
        type            symmetry;
    }
    symmetryZ05
    {
        type            symmetry;
    }
    procBoundary0to1
    {
        type            processor;
        value           uniform (0 0 0);
    }
}


// ************************************************************************* //
