/*--------------------------------*- C++ -*----------------------------------*\
| =========                 |                                                 |
| \\      /  F ield         | OpenFOAM: The Open Source CFD Toolbox           |
|  \\    /   O peration     | Version:  2412                                  |
|   \\  /    A nd           | Website:  www.openfoam.com                      |
|    \\/     M anipulation  |                                                 |
\*---------------------------------------------------------------------------*/
FoamFile
{
    version     2.0;
    format      ascii;
    arch        "LSB;label=32;scalar=64";
    class       volScalarField;
    location    "7e-06";
    object      E;
}
// * * * * * * * * * * * * * * * * * * * * * * * * * * * * * * * * * * * * * //

dimensions      [0 0 0 0 0 0 0];

internalField   nonuniform List<scalar> 
84
(
99.4406
13.9986
35.5996
99.4801
14.024
35.626
99.4701
14.0209
35.6209
99.4701
14.0209
35.6209
99.4701
14.0209
35.6209
99.4701
14.0209
35.6209
99.4701
14.0209
35.6209
99.4701
14.0209
35.6209
99.4701
14.0209
35.6209
99.4701
14.0209
35.6209
99.4701
14.0208
35.6209
99.4703
14.0147
35.6182
67.1782
62.7554
63.5781
71.7705
66.7689
67.6669
71.2839
66.3434
67.2277
70.7999
65.9206
66.3797
62.6075
70.3182
65.4997
65.9468
66.4007
69.8387
65.0805
65.5157
65.9677
69.3706
64.6707
65.0945
65.5444
68.9159
64.2724
64.6852
65.1298
68.4947
63.8983
64.3016
64.2992
62.8398
67.9213
63.4087
63.7963
63.7869
64.2463
67.473
63.0151
63.3919
63.3786
63.9937
67.0297
62.6262
62.9926
63.4313
)
;

boundaryField
{
    inlet
    {
        type            calculated;
        value           uniform 0;
    }
    outlet2
    {
        type            calculated;
        value           uniform 0;
    }
    outlet1
    {
        type            calculated;
        value           nonuniform List<scalar> 0();
    }
    wall
    {
        type            calculated;
        value           uniform 0;
    }
    symmetryBottom
    {
        type            symmetry;
    }
    symmetryZ0
    {
        type            symmetry;
    }
    symmetryZ05
    {
        type            symmetry;
    }
    procBoundary1to0
    {
        type            processor;
        value           uniform 0;
    }
}


// ************************************************************************* //
