/*--------------------------------*- C++ -*----------------------------------*\
| =========                 |                                                 |
| \\      /  F ield         | OpenFOAM: The Open Source CFD Toolbox           |
|  \\    /   O peration     | Version:  2412                                  |
|   \\  /    A nd           | Website:  www.openfoam.com                      |
|    \\/     M anipulation  |                                                 |
\*---------------------------------------------------------------------------*/
FoamFile
{
    version     2.0;
    format      ascii;
    arch        "LSB;label=32;scalar=64";
    class       volVectorField;
    location    "7e-06";
    object      rhoU_dof0;
}
// * * * * * * * * * * * * * * * * * * * * * * * * * * * * * * * * * * * * * //

dimensions      [0 0 0 0 0 0 0];

internalField   nonuniform List<vector> 
84
(
(0.0741123 -7.35084e-07 0)
(0.0107069 -6.81222e-07 0)
(0.026655 -5.84496e-07 -1.16335e-19)
(0.0741417 -0.000149212 0)
(0.0107261 -3.75464e-05 0)
(0.0266748 -6.98451e-05 -1.14764e-19)
(0.0741343 -0.000148505 0)
(0.0107238 -3.73362e-05 0)
(0.026671 -6.94869e-05 1.56125e-19)
(0.0741343 -0.000148505 0)
(0.0107238 -3.73361e-05 0)
(0.026671 -6.94868e-05 -2.13298e-19)
(0.0741343 -0.000148505 0)
(0.0107238 -3.73361e-05 0)
(0.026671 -6.94868e-05 -3.25591e-19)
(0.0741343 -0.000148505 0)
(0.0107238 -3.73361e-05 0)
(0.026671 -6.94868e-05 2.09996e-19)
(0.0741343 -0.000148505 0)
(0.0107238 -3.73361e-05 0)
(0.026671 -6.94868e-05 -2.40616e-19)
(0.0741343 -0.000148505 0)
(0.0107238 -3.73361e-05 0)
(0.026671 -6.94868e-05 -2.72514e-19)
(0.0741343 -0.000148505 0)
(0.0107238 -3.73361e-05 0)
(0.026671 -6.94868e-05 1.16286e-19)
(0.0741343 -0.000148505 0)
(0.0107238 -3.73361e-05 0)
(0.026671 -6.94868e-05 -2.40724e-19)
(0.0741343 -0.000148505 0)
(0.0107237 -3.73313e-05 0)
(0.026671 -6.94846e-05 -6.40365e-19)
(0.0741345 -0.000148523 0)
(0.0107192 -3.6884e-05 0)
(0.026669 -6.92881e-05 0)
(0.0501732 0.000141057 1.7669e-20)
(0.0469038 0.000123371 1.52756e-19)
(0.0475117 0.000125653 1.61086e-20)
(0.0535749 -0.000145229 1.70356e-20)
(0.0498792 -0.000137464 1.66988e-19)
(0.0505424 -0.000138961 -5.15245e-21)
(0.0532139 -0.000144319 -2.37505e-20)
(0.0495631 -0.00013662 -8.00277e-20)
(0.0502163 -0.000137919 -2.51066e-19)
(0.0528548 -0.000143381 3.09297e-20)
(0.049249 -0.000135784 -5.08667e-21)
(0.0495866 -0.000138594 4.12801e-22)
(0.0467866 1.20343e-05 2.10533e-19)
(0.0524972 -0.000142501 -3.23228e-20)
(0.0489364 -0.000134997 1.28197e-21)
(0.0492651 -0.000137774 -2.5349e-21)
(0.0496023 -0.000138456 2.12427e-19)
(0.0521391 -0.000136453 -3.04221e-20)
(0.0486232 -0.000129756 -1.5986e-19)
(0.0489431 -0.000132415 1.40201e-20)
(0.0492788 -0.000133074 1.79834e-19)
(0.0517796 -0.000107121 3.54423e-20)
(0.0483086 -0.000103992 -4.29631e-21)
(0.0486197 -0.000105921 3.42614e-22)
(0.0489539 -0.00010646 -1.41328e-21)
(0.0514295 -8.94138e-05 4.2924e-20)
(0.0480021 -8.8387e-05 -1.62323e-19)
(0.0483047 -8.99046e-05 1.81546e-19)
(0.0486349 -9.02319e-05 2.88279e-21)
(0.0510575 -7.75566e-05 -1.71604e-20)
(0.0476752 -7.79377e-05 -2.12542e-19)
(0.0479688 -7.91263e-05 -2.04371e-19)
(0.0479662 -8.02924e-05 2.36916e-19)
(0.04697 1.26514e-05 1.34632e-18)
(0.0507537 -7.47093e-05 3.70844e-20)
(0.0474131 -7.54353e-05 -2.18569e-19)
(0.0476989 -7.64982e-05 1.79268e-19)
(0.0476926 -7.75799e-05 2.92354e-19)
(0.0480356 -7.8696e-05 2.04199e-19)
(0.050395 -8.60634e-05 9.39095e-20)
(0.0470984 -8.53115e-05 -7.49417e-21)
(0.0473756 -8.6668e-05 7.14119e-22)
(0.0473661 -8.80309e-05 -5.6297e-22)
(0.0478223 -9.68277e-05 -2.17975e-19)
(0.0500605 -0.000104574 1.73434e-22)
(0.0468048 -0.000101417 2.15336e-19)
(0.0470741 -0.000103211 -2.65364e-20)
(0.0474001 -0.000103679 -2.96341e-19)
)
;

boundaryField
{
    inlet
    {
        type            calculated;
        value           uniform (0.0741049 0 0);
    }
    outlet2
    {
        type            calculated;
        value           uniform (0.0741049 0 0);
    }
    outlet1
    {
        type            calculated;
        value           nonuniform List<vector> 0();
    }
    wall
    {
        type            calculated;
        value           uniform (0.0741049 0 0);
    }
    symmetryBottom
    {
        type            symmetry;
    }
    symmetryZ0
    {
        type            symmetry;
    }
    symmetryZ05
    {
        type            symmetry;
    }
    procBoundary1to0
    {
        type            processor;
        value           uniform (0.0741049 0 0);
    }
}


// ************************************************************************* //
