/*--------------------------------*- C++ -*----------------------------------*\
| =========                 |                                                 |
| \\      /  F ield         | OpenFOAM: The Open Source CFD Toolbox           |
|  \\    /   O peration     | Version:  2412                                  |
|   \\  /    A nd           | Website:  www.openfoam.com                      |
|    \\/     M anipulation  |                                                 |
\*---------------------------------------------------------------------------*/
FoamFile
{
    version     2.0;
    format      ascii;
    arch        "LSB;label=32;scalar=64";
    class       volScalarField;
    location    "7e-06";
    object      T;
}
// * * * * * * * * * * * * * * * * * * * * * * * * * * * * * * * * * * * * * //

dimensions      [0 0 0 0 0 0 0];

internalField   nonuniform List<scalar> 
84
(
200.014
193.52
200.342
199.968
193.344
200.254
199.956
193.321
200.237
199.956
193.321
200.237
199.956
193.321
200.237
199.956
193.321
200.237
199.956
193.321
200.237
199.956
193.321
200.237
199.956
193.321
200.237
199.956
193.321
200.237
199.956
193.32
200.237
199.956
193.266
200.228
204.451
204.146
204.181
200.025
199.984
200
200.026
199.984
200
200.026
199.984
199.999
200.036
200.032
199.99
200.005
200.004
200.663
200.574
200.597
200.595
203.965
203.676
203.769
203.759
207.088
206.601
206.76
206.744
220.833
219.213
219.721
220.039
197.806
192.44
192.79
192.655
192.544
192.117
198.196
198.263
198.24
198.214
198.364
199.258
199.263
199.261
199.261
)
;

boundaryField
{
    inlet
    {
        type            calculated;
        value           uniform 0;
    }
    outlet2
    {
        type            calculated;
        value           uniform 0;
    }
    outlet1
    {
        type            calculated;
        value           nonuniform List<scalar> 0();
    }
    wall
    {
        type            calculated;
        value           uniform 0;
    }
    symmetryBottom
    {
        type            symmetry;
    }
    symmetryZ0
    {
        type            symmetry;
    }
    symmetryZ05
    {
        type            symmetry;
    }
    procBoundary1to0
    {
        type            processor;
        value           uniform 0;
    }
}


// ************************************************************************* //
