/*--------------------------------*- C++ -*----------------------------------*\
| =========                 |                                                 |
| \\      /  F ield         | OpenFOAM: The Open Source CFD Toolbox           |
|  \\    /   O peration     | Version:  2412                                  |
|   \\  /    A nd           | Website:  www.openfoam.com                      |
|    \\/     M anipulation  |                                                 |
\*---------------------------------------------------------------------------*/
FoamFile
{
    version     2.0;
    format      ascii;
    arch        "LSB;label=32;scalar=64";
    class       volScalarField;
    location    "2.2e-06";
    object      E;
}
// * * * * * * * * * * * * * * * * * * * * * * * * * * * * * * * * * * * * * //

dimensions      [0 0 0 0 0 0 0];

internalField   nonuniform List<scalar> 
84
(
99.2036
85.6822
86.1564
86.1466
86.1476
86.1485
86.1494
86.3527
101.244
87.4833
87.9933
88.0112
88.0409
88.0714
88.1028
88.3094
100.967
87.3566
87.8023
87.8198
87.8464
87.8738
87.902
88.1083
100.796
87.1368
87.6393
87.6522
87.6766
87.7017
87.9077
100.644
86.9484
87.4485
87.4584
87.4798
87.5017
87.7073
100.434
86.7627
87.259
87.2659
87.2843
87.3031
87.5084
100.229
86.5811
87.0737
87.0777
87.0931
87.1088
87.3138
99.9888
86.434
86.8893
86.892
86.9044
86.9171
87.1217
99.8214
86.2495
86.7349
86.7339
86.744
86.9483
99.5819
86.0082
86.4896
86.4848
86.491
86.6949
99.3667
85.8335
86.3104
86.3029
86.3062
86.5098
98.9579
85.6692
86.1227
86.113
86.1133
86.1135
86.3168
)
;

boundaryField
{
    inlet
    {
        type            calculated;
        value           nonuniform List<scalar> 0();
    }
    outlet2
    {
        type            calculated;
        value           uniform 0;
    }
    outlet1
    {
        type            calculated;
        value           uniform 0;
    }
    wall
    {
        type            calculated;
        value           uniform 0;
    }
    symmetryBottom
    {
        type            symmetry;
    }
    symmetryZ0
    {
        type            symmetry;
    }
    symmetryZ05
    {
        type            symmetry;
    }
    procBoundary0to1
    {
        type            processor;
        value           uniform 0;
    }
}


// ************************************************************************* //
