/*--------------------------------*- C++ -*----------------------------------*\
| =========                 |                                                 |
| \\      /  F ield         | OpenFOAM: The Open Source CFD Toolbox           |
|  \\    /   O peration     | Version:  2412                                  |
|   \\  /    A nd           | Website:  www.openfoam.com                      |
|    \\/     M anipulation  |                                                 |
\*---------------------------------------------------------------------------*/
FoamFile
{
    version     2.0;
    format      ascii;
    arch        "LSB;label=32;scalar=64";
    class       volScalarField;
    location    "2.2e-06";
    object      rho;
}
// * * * * * * * * * * * * * * * * * * * * * * * * * * * * * * * * * * * * * //

dimensions      [0 0 0 0 0 0 0];

internalField   nonuniform List<scalar> 
84
(
2.8052e-05
2.42706e-05
2.44018e-05
2.43992e-05
2.43995e-05
2.43999e-05
2.44002e-05
2.44571e-05
2.86167e-05
2.47696e-05
2.49107e-05
2.49157e-05
2.4924e-05
2.49326e-05
2.49413e-05
2.49991e-05
2.85393e-05
2.4734e-05
2.48572e-05
2.48622e-05
2.48696e-05
2.48773e-05
2.48852e-05
2.49429e-05
2.84917e-05
2.46727e-05
2.48116e-05
2.48153e-05
2.48221e-05
2.48291e-05
2.48867e-05
2.84489e-05
2.46199e-05
2.47582e-05
2.47611e-05
2.4767e-05
2.47732e-05
2.48307e-05
2.83899e-05
2.45676e-05
2.47049e-05
2.47069e-05
2.4712e-05
2.47173e-05
2.47747e-05
2.83309e-05
2.45155e-05
2.46516e-05
2.46528e-05
2.46571e-05
2.46615e-05
2.47188e-05
2.8262e-05
2.44726e-05
2.45984e-05
2.45991e-05
2.46025e-05
2.4606e-05
2.46633e-05
2.8207e-05
2.44134e-05
2.45474e-05
2.4547e-05
2.45496e-05
2.46068e-05
2.81587e-05
2.43624e-05
2.44956e-05
2.44944e-05
2.44962e-05
2.45533e-05
2.80938e-05
2.43095e-05
2.44414e-05
2.44394e-05
2.44403e-05
2.44973e-05
2.79778e-05
2.42626e-05
2.43879e-05
2.43852e-05
2.43853e-05
2.43854e-05
2.44423e-05
)
;

boundaryField
{
    inlet
    {
        type            calculated;
        value           nonuniform List<scalar> 0();
    }
    outlet2
    {
        type            calculated;
        value           uniform 0;
    }
    outlet1
    {
        type            calculated;
        value           uniform 0;
    }
    wall
    {
        type            calculated;
        value           uniform 0;
    }
    symmetryBottom
    {
        type            symmetry;
    }
    symmetryZ0
    {
        type            symmetry;
    }
    symmetryZ05
    {
        type            symmetry;
    }
    procBoundary0to1
    {
        type            processor;
        value           uniform 0;
    }
}


// ************************************************************************* //
