/*--------------------------------*- C++ -*----------------------------------*\
| =========                 |                                                 |
| \\      /  F ield         | OpenFOAM: The Open Source CFD Toolbox           |
|  \\    /   O peration     | Version:  2412                                  |
|   \\  /    A nd           | Website:  www.openfoam.com                      |
|    \\/     M anipulation  |                                                 |
\*---------------------------------------------------------------------------*/
FoamFile
{
    version     2.0;
    format      ascii;
    arch        "LSB;label=32;scalar=64";
    class       volVectorField;
    location    "2.2e-06";
    object      U;
}
// * * * * * * * * * * * * * * * * * * * * * * * * * * * * * * * * * * * * * //

dimensions      [0 0 0 0 0 0 0];

internalField   nonuniform List<vector> 
84
(
(2635.86 2.31355 2.39904e-15)
(2633.53 2.35625 -2.81218e-15)
(2633.7 2.39013 -6.46618e-15)
(2633.69 2.42573 2.96624e-15)
(2633.68 2.46238 -8.95695e-17)
(2633.68 2.50016 3.56757e-16)
(2633.67 2.53911 6.03122e-15)
(2633.71 2.53763 1.3327e-15)
(2636.6 -2.31789 2.41537e-15)
(2634.3 -2.37914 -2.65404e-15)
(2634.48 -2.41204 -7.631e-15)
(2634.48 -2.44841 3.52663e-16)
(2634.48 -2.48582 -1.35126e-14)
(2634.49 -2.52438 1.87984e-15)
(2634.49 -2.56416 1.10285e-14)
(2634.53 -2.56235 2.50731e-15)
(2636.55 -2.23023 -1.08399e-14)
(2634.29 -2.46022 1.815e-15)
(2634.44 -2.40918 3.91142e-15)
(2634.44 -2.44896 -1.80171e-16)
(2634.45 -2.4863 -9.192e-17)
(2634.45 -2.52488 5.50082e-15)
(2634.46 -2.56467 -4.332e-15)
(2634.5 -2.56286 -5.75086e-15)
(2636.52 -2.28236 -1.08487e-14)
(2634.24 -2.41671 5.7585e-15)
(2634.41 -2.44926 -2.35848e-16)
(2634.41 -2.48678 -1.23218e-14)
(2634.42 -2.52538 1.14217e-14)
(2634.42 -2.56519 2.48455e-15)
(2634.46 -2.56337 -4.29351e-15)
(2636.51 -2.35374 -5.91383e-15)
(2634.2 -2.41557 -2.45844e-15)
(2634.38 -2.44997 8.90569e-17)
(2634.38 -2.48749 2.58149e-17)
(2634.38 -2.5261 -3.96047e-15)
(2634.39 -2.56594 3.03763e-15)
(2634.42 -2.56412 8.29616e-15)
(2636.47 -2.24542 -3.70744e-15)
(2634.15 -2.30263 6.89229e-15)
(2634.33 -2.3358 -2.35552e-16)
(2634.33 -2.37182 8.24305e-15)
(2634.33 -2.40891 -7.21068e-15)
(2634.34 -2.44718 6.08928e-15)
(2634.38 -2.44548 -1.32277e-14)
(2636.4 -1.8114 -5.90469e-19)
(2634.08 -1.85648 6.82827e-15)
(2634.26 -1.8831 -2.33402e-16)
(2634.25 -1.91214 -1.63456e-17)
(2634.26 -1.94203 6.91686e-15)
(2634.26 -1.97288 1.12376e-15)
(2634.3 -1.97153 7.30352e-15)
(2636.35 -1.45817 2.75767e-17)
(2634.04 -1.63434 2.12633e-17)
(2634.21 -1.58956 -2.21058e-17)
(2634.2 -1.61695 -3.16999e-17)
(2634.2 -1.64228 -3.89748e-18)
(2634.2 -1.66848 7.6537e-18)
(2634.24 -1.66736 -5.58579e-15)
(2636.3 -1.3666 1.32144e-14)
(2633.98 -1.44101 -5.09456e-16)
(2634.16 -1.46129 -1.37444e-14)
(2634.15 -1.48411 -5.26835e-15)
(2634.15 -1.5076 7.24493e-15)
(2634.19 -1.50662 -4.01733e-18)
(2636.31 -1.40663 -4.65755e-15)
(2634 -1.43744 1.85883e-16)
(2634.18 -1.45849 -6.84167e-15)
(2634.17 -1.48094 7.12984e-15)
(2634.18 -1.50407 1.23946e-14)
(2634.21 -1.50312 -3.58551e-16)
(2636.29 -1.54306 -6.27018e-15)
(2633.98 -1.61984 2.47906e-16)
(2634.15 -1.64168 6.9295e-19)
(2634.15 -1.66715 1.24459e-14)
(2634.15 -1.69335 1.33757e-14)
(2634.19 -1.69227 1.0803e-15)
(2636.25 -0.0902686 -1.94093e-16)
(2633.96 -2.01116 4.89907e-18)
(2634.13 -1.93914 -7.61545e-20)
(2634.13 -1.97151 8.15206e-15)
(2634.13 -2.00194 -2.8954e-16)
(2634.13 -2.03338 6.42592e-18)
(2634.17 -2.03214 -7.17571e-15)
)
;

boundaryField
{
    inlet
    {
        type            calculated;
        value           nonuniform List<vector> 0();
    }
    outlet2
    {
        type            calculated;
        value           uniform (0 0 0);
    }
    outlet1
    {
        type            calculated;
        value           uniform (0 0 0);
    }
    wall
    {
        type            calculated;
        value           uniform (0 0 0);
    }
    symmetryBottom
    {
        type            symmetry;
    }
    symmetryZ0
    {
        type            symmetry;
    }
    symmetryZ05
    {
        type            symmetry;
    }
    procBoundary0to1
    {
        type            processor;
        value           uniform (0 0 0);
    }
}


// ************************************************************************* //
