/*--------------------------------*- C++ -*----------------------------------*\
| =========                 |                                                 |
| \\      /  F ield         | OpenFOAM: The Open Source CFD Toolbox           |
|  \\    /   O peration     | Version:  2412                                  |
|   \\  /    A nd           | Website:  www.openfoam.com                      |
|    \\/     M anipulation  |                                                 |
\*---------------------------------------------------------------------------*/
FoamFile
{
    version     2.0;
    format      ascii;
    arch        "LSB;label=32;scalar=64";
    class       volScalarField;
    location    "2.9e-06";
    object      E;
}
// * * * * * * * * * * * * * * * * * * * * * * * * * * * * * * * * * * * * * //

dimensions      [0 0 0 0 0 0 0];

internalField   nonuniform List<scalar> 
84
(
99.4326
58.1272
62.6259
99.4408
58.1408
62.6381
99.4387
58.1393
62.6365
99.4387
58.1393
62.6365
99.4387
58.1393
62.6365
99.4387
58.1393
62.6365
99.4387
58.1393
62.6365
99.4387
58.1393
62.6365
99.4387
58.1393
62.6365
99.4387
58.1393
62.6365
99.4387
58.1393
62.6365
99.4388
58.1359
62.6339
83.3104
82.2765
82.5387
85.5762
84.4581
84.7284
85.3427
84.2332
84.5016
85.1098
84.0089
84.0698
82.1913
84.8773
83.7849
83.8422
84.0779
84.6463
83.5625
83.6162
83.8514
84.4206
83.3449
83.3951
83.6299
84.1981
83.1305
83.1773
83.411
83.9972
82.936
82.9797
82.9896
82.238
83.7035
82.6554
82.6946
82.7003
82.9349
83.4887
82.4482
82.484
82.487
82.7509
83.2659
82.2333
82.2658
82.4979
)
;

boundaryField
{
    inlet
    {
        type            calculated;
        value           uniform 0;
    }
    outlet2
    {
        type            calculated;
        value           uniform 0;
    }
    outlet1
    {
        type            calculated;
        value           nonuniform List<scalar> 0();
    }
    wall
    {
        type            calculated;
        value           uniform 0;
    }
    symmetryBottom
    {
        type            symmetry;
    }
    symmetryZ0
    {
        type            symmetry;
    }
    symmetryZ05
    {
        type            symmetry;
    }
    procBoundary1to0
    {
        type            processor;
        value           uniform 0;
    }
}


// ************************************************************************* //
