/*--------------------------------*- C++ -*----------------------------------*\
| =========                 |                                                 |
| \\      /  F ield         | OpenFOAM: The Open Source CFD Toolbox           |
|  \\    /   O peration     | Version:  2412                                  |
|   \\  /    A nd           | Website:  www.openfoam.com                      |
|    \\/     M anipulation  |                                                 |
\*---------------------------------------------------------------------------*/
FoamFile
{
    version     2.0;
    format      ascii;
    arch        "LSB;label=32;scalar=64";
    class       volScalarField;
    location    "2.9e-06";
    object      T;
}
// * * * * * * * * * * * * * * * * * * * * * * * * * * * * * * * * * * * * * //

dimensions      [0 0 0 0 0 0 0];

internalField   nonuniform List<scalar> 
84
(
200.003
199.911
200.021
199.992
199.889
200.001
199.99
199.886
199.998
199.99
199.886
199.998
199.99
199.886
199.998
199.99
199.886
199.998
199.99
199.886
199.998
199.99
199.886
199.998
199.99
199.886
199.998
199.99
199.886
199.998
199.99
199.886
199.998
199.99
199.879
199.993
201.775
201.724
201.726
200.008
199.998
199.999
200.008
199.998
199.999
200.008
199.998
199.999
200.006
200.009
199.999
200
200
200.326
200.307
200.312
200.312
201.591
201.543
201.568
201.567
202.782
202.706
202.749
202.746
207.502
207.302
207.421
207.532
199.67
197.036
197.092
197.047
197.004
196.952
199.3
199.307
199.297
199.287
199.313
199.712
199.709
199.706
199.706
)
;

boundaryField
{
    inlet
    {
        type            calculated;
        value           uniform 0;
    }
    outlet2
    {
        type            calculated;
        value           uniform 0;
    }
    outlet1
    {
        type            calculated;
        value           nonuniform List<scalar> 0();
    }
    wall
    {
        type            calculated;
        value           uniform 0;
    }
    symmetryBottom
    {
        type            symmetry;
    }
    symmetryZ0
    {
        type            symmetry;
    }
    symmetryZ05
    {
        type            symmetry;
    }
    procBoundary1to0
    {
        type            processor;
        value           uniform 0;
    }
}


// ************************************************************************* //
