/*--------------------------------*- C++ -*----------------------------------*\
| =========                 |                                                 |
| \\      /  F ield         | OpenFOAM: The Open Source CFD Toolbox           |
|  \\    /   O peration     | Version:  2412                                  |
|   \\  /    A nd           | Website:  www.openfoam.com                      |
|    \\/     M anipulation  |                                                 |
\*---------------------------------------------------------------------------*/
FoamFile
{
    version     2.0;
    format      ascii;
    arch        "LSB;label=32;scalar=64";
    class       volVectorField;
    location    "1.2e-06";
    object      rhoU_dof0;
}
// * * * * * * * * * * * * * * * * * * * * * * * * * * * * * * * * * * * * * //

dimensions      [0 0 0 0 0 0 0];

internalField   nonuniform List<vector> 
84
(
(0.0741051 -2.32969e-08 0)
(0.0605619 -1.33365e-07 0)
(0.0611522 -1.24464e-07 -4.05929e-20)
(0.0741062 -3.21861e-05 0)
(0.0605655 -2.80233e-05 0)
(0.0611555 -2.82079e-05 -3.74703e-20)
(0.0741059 -3.21578e-05 0)
(0.0605652 -2.7999e-05 0)
(0.0611553 -2.81834e-05 6.24506e-20)
(0.0741059 -3.21578e-05 0)
(0.0605652 -2.7999e-05 0)
(0.0611553 -2.81834e-05 -8.275e-20)
(0.0741059 -3.21578e-05 0)
(0.0605652 -2.7999e-05 0)
(0.0611553 -2.81834e-05 -1.37393e-19)
(0.0741059 -3.21578e-05 0)
(0.0605652 -2.7999e-05 0)
(0.0611553 -2.81834e-05 7.96246e-20)
(0.0741059 -3.21578e-05 0)
(0.0605652 -2.7999e-05 0)
(0.0611553 -2.81834e-05 -9.99239e-20)
(0.0741059 -3.21578e-05 0)
(0.0605652 -2.7999e-05 0)
(0.0611553 -2.81834e-05 -1.15535e-19)
(0.0741059 -3.21578e-05 0)
(0.0605652 -2.7999e-05 0)
(0.0611553 -2.81834e-05 4.21537e-20)
(0.0741059 -3.21578e-05 0)
(0.0605652 -2.7999e-05 0)
(0.0611553 -2.81834e-05 -9.99255e-20)
(0.0741059 -3.21578e-05 0)
(0.0605652 -2.79989e-05 0)
(0.0611553 -2.81833e-05 -2.45123e-19)
(0.074106 -3.21623e-05 0)
(0.0605641 -2.78903e-05 0)
(0.0611543 -2.80837e-05 0)
(0.068695 3.23993e-05 7.4095e-22)
(0.0685538 3.22394e-05 3.4708e-20)
(0.068632 3.22724e-05 3.33732e-21)
(0.0694442 -3.22617e-05 6.654e-22)
(0.0692993 -3.26588e-05 3.60477e-20)
(0.0693782 -3.26828e-05 -1.51335e-22)
(0.0693677 -3.22324e-05 -1.13975e-21)
(0.0692232 -3.26288e-05 -1.54776e-20)
(0.0693019 -3.26476e-05 -7.21097e-20)
(0.0692913 -3.22028e-05 1.4967e-21)
(0.0691472 -3.25989e-05 -5.67307e-22)
(0.0691576 -3.30665e-05 9.15873e-24)
(0.0685343 3.81014e-07 5.03653e-20)
(0.069215 -3.21737e-05 -1.8943e-20)
(0.0690712 -3.25695e-05 -1.98104e-22)
(0.0690805 -3.30362e-05 -5.53019e-22)
(0.0691586 -3.30603e-05 4.9222e-20)
(0.0691386 -3.0506e-05 -1.43764e-21)
(0.0689952 -3.09104e-05 -3.599e-20)
(0.0690034 -3.1354e-05 -3.74336e-22)
(0.0690814 -3.13771e-05 3.32171e-20)
(0.069062 -2.44703e-05 1.57705e-21)
(0.0689189 -2.49008e-05 -5.23098e-23)
(0.068926 -2.52566e-05 -2.5524e-22)
(0.069004 -2.52755e-05 -2.83655e-22)
(0.0689859 -2.05374e-05 2.37837e-21)
(0.0688432 -2.09851e-05 -3.45187e-20)
(0.0688492 -2.12843e-05 3.74191e-20)
(0.068927 -2.12966e-05 2.51915e-22)
(0.0689094 -1.858e-05 -7.44711e-22)
(0.068767 -1.90347e-05 -5.37256e-20)
(0.0687719 -1.93044e-05 -5.50793e-20)
(0.0687752 -1.9584e-05 5.53055e-20)
(0.0685405 4.14092e-07 3.76106e-19)
(0.0688351 -1.86445e-05 1.9567e-21)
(0.0686932 -1.90969e-05 -5.39235e-20)
(0.068697 -1.93655e-05 3.49442e-20)
(0.0686993 -1.9644e-05 8.91827e-20)
(0.0687779 -1.96794e-05 5.66758e-20)
(0.0687591 -2.09665e-05 4.81511e-21)
(0.0686175 -2.14078e-05 -4.31388e-23)
(0.0686203 -2.17101e-05 6.94213e-23)
(0.0686214 -2.20266e-05 4.09707e-24)
(0.0687034 -2.23003e-05 -5.11299e-20)
(0.0686835 -2.52735e-05 3.97736e-23)
(0.0685423 -2.56908e-05 5.26706e-20)
(0.0685439 -2.60544e-05 -9.25065e-22)
(0.0686216 -2.60728e-05 -8.75244e-20)
)
;

boundaryField
{
    inlet
    {
        type            calculated;
        value           uniform (0.0741049 0 0);
    }
    outlet2
    {
        type            calculated;
        value           uniform (0.0741049 0 0);
    }
    outlet1
    {
        type            calculated;
        value           nonuniform List<vector> 0();
    }
    wall
    {
        type            calculated;
        value           uniform (0.0741049 0 0);
    }
    symmetryBottom
    {
        type            symmetry;
    }
    symmetryZ0
    {
        type            symmetry;
    }
    symmetryZ05
    {
        type            symmetry;
    }
    procBoundary1to0
    {
        type            processor;
        value           uniform (0.0741049 0 0);
    }
}


// ************************************************************************* //
