/*--------------------------------*- C++ -*----------------------------------*\
| =========                 |                                                 |
| \\      /  F ield         | OpenFOAM: The Open Source CFD Toolbox           |
|  \\    /   O peration     | Version:  2412                                  |
|   \\  /    A nd           | Website:  www.openfoam.com                      |
|    \\/     M anipulation  |                                                 |
\*---------------------------------------------------------------------------*/
FoamFile
{
    version     2.0;
    format      ascii;
    arch        "LSB;label=32;scalar=64";
    class       volScalarField;
    location    "1.3e-06";
    object      rho_dof0;
}
// * * * * * * * * * * * * * * * * * * * * * * * * * * * * * * * * * * * * * //

dimensions      [0 0 0 0 0 0 0];

internalField   nonuniform List<scalar> 
84
(
2.81086e-05
2.25969e-05
2.28571e-05
2.81091e-05
2.25984e-05
2.28585e-05
2.8109e-05
2.25983e-05
2.28584e-05
2.8109e-05
2.25983e-05
2.28584e-05
2.8109e-05
2.25983e-05
2.28584e-05
2.8109e-05
2.25983e-05
2.28584e-05
2.8109e-05
2.25983e-05
2.28584e-05
2.8109e-05
2.25983e-05
2.28584e-05
2.8109e-05
2.25983e-05
2.28584e-05
2.8109e-05
2.25983e-05
2.28584e-05
2.8109e-05
2.25983e-05
2.28584e-05
2.8109e-05
2.25978e-05
2.2858e-05
2.59124e-05
2.58503e-05
2.58822e-05
2.62147e-05
2.61505e-05
2.61828e-05
2.61835e-05
2.61196e-05
2.61518e-05
2.61525e-05
2.60887e-05
2.60931e-05
2.58396e-05
2.61214e-05
2.60579e-05
2.60618e-05
2.60935e-05
2.60904e-05
2.6027e-05
2.60305e-05
2.60622e-05
2.60594e-05
2.59963e-05
2.59993e-05
2.6031e-05
2.60285e-05
2.59656e-05
2.59682e-05
2.59998e-05
2.59974e-05
2.59347e-05
2.59368e-05
2.59381e-05
2.58424e-05
2.59671e-05
2.59045e-05
2.59062e-05
2.59071e-05
2.59391e-05
2.5936e-05
2.58737e-05
2.5875e-05
2.58754e-05
2.59089e-05
2.59052e-05
2.58431e-05
2.58439e-05
2.58755e-05
)
;

boundaryField
{
    inlet
    {
        type            calculated;
        value           uniform 2.81085e-05;
    }
    outlet2
    {
        type            calculated;
        value           uniform 2.81085e-05;
    }
    outlet1
    {
        type            calculated;
        value           nonuniform List<scalar> 0();
    }
    wall
    {
        type            calculated;
        value           uniform 2.81085e-05;
    }
    symmetryBottom
    {
        type            symmetry;
    }
    symmetryZ0
    {
        type            symmetry;
    }
    symmetryZ05
    {
        type            symmetry;
    }
    procBoundary1to0
    {
        type            processor;
        value           uniform 2.81085e-05;
    }
}


// ************************************************************************* //
