/*--------------------------------*- C++ -*----------------------------------*\
| =========                 |                                                 |
| \\      /  F ield         | OpenFOAM: The Open Source CFD Toolbox           |
|  \\    /   O peration     | Version:  2412                                  |
|   \\  /    A nd           | Website:  www.openfoam.com                      |
|    \\/     M anipulation  |                                                 |
\*---------------------------------------------------------------------------*/
FoamFile
{
    version     2.0;
    format      ascii;
    arch        "LSB;label=32;scalar=64";
    class       volVectorField;
    location    "1.3e-06";
    object      rhoU_dof0;
}
// * * * * * * * * * * * * * * * * * * * * * * * * * * * * * * * * * * * * * //

dimensions      [0 0 0 0 0 0 0];

internalField   nonuniform List<vector> 
84
(
(0.0741052 -2.78088e-08 0)
(0.0594912 -1.4638e-07 0)
(0.060185 -1.35809e-07 -4.21542e-20)
(0.0741064 -3.47244e-05 0)
(0.0594951 -2.98318e-05 0)
(0.0601888 -3.00703e-05 -4.05929e-20)
(0.0741061 -3.46913e-05 0)
(0.0594948 -2.98036e-05 0)
(0.0601885 -3.00418e-05 6.71345e-20)
(0.0741061 -3.46913e-05 0)
(0.0594948 -2.98036e-05 0)
(0.0601885 -3.00418e-05 -8.89958e-20)
(0.0741061 -3.46913e-05 0)
(0.0594948 -2.98036e-05 0)
(0.0601885 -3.00418e-05 -1.46761e-19)
(0.0741061 -3.46913e-05 0)
(0.0594948 -2.98036e-05 0)
(0.0601885 -3.00418e-05 8.58698e-20)
(0.0741061 -3.46913e-05 0)
(0.0594948 -2.98036e-05 0)
(0.0601885 -3.00418e-05 -1.0617e-19)
(0.0741061 -3.46913e-05 0)
(0.0594948 -2.98036e-05 0)
(0.0601885 -3.00418e-05 -1.21781e-19)
(0.0741061 -3.46913e-05 0)
(0.0594948 -2.98036e-05 0)
(0.0601885 -3.00418e-05 4.52762e-20)
(0.0741061 -3.46913e-05 0)
(0.0594948 -2.98036e-05 0)
(0.0601885 -3.00418e-05 -1.06172e-19)
(0.0741061 -3.46913e-05 0)
(0.0594948 -2.98034e-05 0)
(0.0601885 -3.00417e-05 -2.60737e-19)
(0.0741062 -3.46962e-05 0)
(0.0594936 -2.96858e-05 0)
(0.0601874 -2.99348e-05 0)
(0.0682762 3.49133e-05 8.70976e-22)
(0.0681106 3.46783e-05 3.72104e-20)
(0.0681952 3.47178e-05 3.60348e-21)
(0.0690841 -3.47693e-05 7.85425e-22)
(0.068913 -3.51849e-05 3.98643e-20)
(0.0689986 -3.52134e-05 -1.81097e-22)
(0.0690016 -3.47345e-05 -1.33986e-21)
(0.0688311 -3.51495e-05 -1.80468e-20)
(0.0689164 -3.51716e-05 -7.73735e-20)
(0.0689192 -3.46995e-05 1.75602e-21)
(0.0687492 -3.5114e-05 -6.15521e-22)
(0.0687608 -3.56182e-05 1.07989e-23)
(0.0680887 4.54846e-07 5.43404e-20)
(0.0688368 -3.46652e-05 -1.97305e-20)
(0.0686674 -3.50794e-05 -1.90881e-22)
(0.0686778 -3.55826e-05 -5.96392e-22)
(0.068762 -3.56111e-05 5.32291e-20)
(0.0687543 -3.28725e-05 -1.69292e-21)
(0.0685855 -3.32993e-05 -3.98042e-20)
(0.0685947 -3.37777e-05 -3.42187e-22)
(0.0686788 -3.3805e-05 3.58805e-20)
(0.0686717 -2.6356e-05 1.87673e-21)
(0.0685033 -2.68223e-05 -6.45692e-23)
(0.0685113 -2.72057e-05 -2.70675e-22)
(0.0685954 -2.7228e-05 -3.0647e-22)
(0.0685896 -2.21147e-05 2.7641e-21)
(0.0684218 -2.26069e-05 -3.7025e-20)
(0.0684286 -2.29291e-05 4.00862e-20)
(0.0685125 -2.29436e-05 2.77835e-22)
(0.068507 -1.99924e-05 -8.75974e-22)
(0.0683397 -2.04957e-05 -5.87718e-20)
(0.0683453 -2.07858e-05 -5.87076e-20)
(0.0683488 -2.1087e-05 6.07153e-20)
(0.068096 4.92999e-07 4.05623e-19)
(0.068427 -2.00497e-05 2.28805e-21)
(0.0682604 -2.05503e-05 -5.76832e-20)
(0.0682649 -2.08388e-05 3.76655e-20)
(0.0682673 -2.11384e-05 9.55102e-20)
(0.068352 -2.11802e-05 6.07275e-20)
(0.068345 -2.25564e-05 5.60887e-21)
(0.0681789 -2.30404e-05 -5.6444e-23)
(0.0681822 -2.33654e-05 7.49378e-23)
(0.0681834 -2.37065e-05 2.03793e-24)
(0.0682721 -2.4033e-05 -5.6512e-20)
(0.0682636 -2.71963e-05 4.28588e-23)
(0.0680979 -2.76459e-05 5.64268e-20)
(0.0681 -2.8037e-05 -1.09089e-21)
(0.0681837 -2.80586e-05 -9.54838e-20)
)
;

boundaryField
{
    inlet
    {
        type            calculated;
        value           uniform (0.0741049 0 0);
    }
    outlet2
    {
        type            calculated;
        value           uniform (0.0741049 0 0);
    }
    outlet1
    {
        type            calculated;
        value           nonuniform List<vector> 0();
    }
    wall
    {
        type            calculated;
        value           uniform (0.0741049 0 0);
    }
    symmetryBottom
    {
        type            symmetry;
    }
    symmetryZ0
    {
        type            symmetry;
    }
    symmetryZ05
    {
        type            symmetry;
    }
    procBoundary1to0
    {
        type            processor;
        value           uniform (0.0741049 0 0);
    }
}


// ************************************************************************* //
