/*--------------------------------*- C++ -*----------------------------------*\
| =========                 |                                                 |
| \\      /  F ield         | OpenFOAM: The Open Source CFD Toolbox           |
|  \\    /   O peration     | Version:  2412                                  |
|   \\  /    A nd           | Website:  www.openfoam.com                      |
|    \\/     M anipulation  |                                                 |
\*---------------------------------------------------------------------------*/
FoamFile
{
    version     2.0;
    format      ascii;
    arch        "LSB;label=32;scalar=64";
    class       volScalarField;
    location    "7.1e-06";
    object      E_dof0;
}
// * * * * * * * * * * * * * * * * * * * * * * * * * * * * * * * * * * * * * //

dimensions      [0 0 0 0 0 0 0];

internalField   nonuniform List<scalar> 
84
(
99.4409
13.0939
35.2071
99.4813
13.1193
35.2338
99.471
13.1162
35.2286
99.471
13.1162
35.2286
99.471
13.1162
35.2286
99.471
13.1162
35.2286
99.471
13.1162
35.2286
99.471
13.1162
35.2286
99.471
13.1162
35.2286
99.471
13.1162
35.2286
99.471
13.1161
35.2285
99.4713
13.1099
35.2259
66.8498
62.3366
63.1772
71.4886
66.38
67.2987
70.9968
65.951
66.8556
70.5076
65.5248
65.9997
62.1903
70.0208
65.1005
65.5632
66.0206
69.5361
64.678
65.1285
65.5838
69.063
64.265
64.7036
65.157
68.6036
63.8635
64.291
64.7389
68.1779
63.4863
63.904
63.9006
62.4282
67.5992
62.9937
63.3954
63.3849
63.8485
67.146
62.5969
62.9874
62.9731
63.5964
66.6984
62.2053
62.5852
63.027
)
;

boundaryField
{
    inlet
    {
        type            calculated;
        value           uniform 99.4306;
    }
    outlet2
    {
        type            calculated;
        value           uniform 99.4306;
    }
    outlet1
    {
        type            calculated;
        value           nonuniform List<scalar> 0();
    }
    wall
    {
        type            calculated;
        value           uniform 99.4306;
    }
    symmetryBottom
    {
        type            symmetry;
    }
    symmetryZ0
    {
        type            symmetry;
    }
    symmetryZ05
    {
        type            symmetry;
    }
    procBoundary1to0
    {
        type            processor;
        value           uniform 99.4306;
    }
}


// ************************************************************************* //
