/*--------------------------------*- C++ -*----------------------------------*\
| =========                 |                                                 |
| \\      /  F ield         | OpenFOAM: The Open Source CFD Toolbox           |
|  \\    /   O peration     | Version:  2412                                  |
|   \\  /    A nd           | Website:  www.openfoam.com                      |
|    \\/     M anipulation  |                                                 |
\*---------------------------------------------------------------------------*/
FoamFile
{
    version     2.0;
    format      ascii;
    arch        "LSB;label=32;scalar=64";
    class       volScalarField;
    location    "7.1e-06";
    object      T;
}
// * * * * * * * * * * * * * * * * * * * * * * * * * * * * * * * * * * * * * //

dimensions      [0 0 0 0 0 0 0];

internalField   nonuniform List<scalar> 
84
(
200.014
192.49
200.357
199.967
192.304
200.267
199.955
192.28
200.25
199.955
192.28
200.25
199.955
192.28
200.25
199.955
192.28
200.25
199.955
192.28
200.25
199.955
192.28
200.25
199.955
192.28
200.25
199.955
192.28
200.25
199.955
192.279
200.25
199.955
192.22
200.241
204.518
204.204
204.241
200.025
199.984
200
200.026
199.984
200
200.026
199.984
199.999
200.037
200.032
199.99
200.005
200.004
200.669
200.578
200.602
200.599
204.024
203.727
203.822
203.812
207.197
206.697
206.86
206.843
221.21
219.534
220.057
220.381
197.736
192.323
192.683
192.546
192.433
191.989
198.167
198.237
198.213
198.187
198.341
199.246
199.251
199.25
199.25
)
;

boundaryField
{
    inlet
    {
        type            calculated;
        value           uniform 0;
    }
    outlet2
    {
        type            calculated;
        value           uniform 0;
    }
    outlet1
    {
        type            calculated;
        value           nonuniform List<scalar> 0();
    }
    wall
    {
        type            calculated;
        value           uniform 0;
    }
    symmetryBottom
    {
        type            symmetry;
    }
    symmetryZ0
    {
        type            symmetry;
    }
    symmetryZ05
    {
        type            symmetry;
    }
    procBoundary1to0
    {
        type            processor;
        value           uniform 0;
    }
}


// ************************************************************************* //
