/*--------------------------------*- C++ -*----------------------------------*\
| =========                 |                                                 |
| \\      /  F ield         | OpenFOAM: The Open Source CFD Toolbox           |
|  \\    /   O peration     | Version:  2412                                  |
|   \\  /    A nd           | Website:  www.openfoam.com                      |
|    \\/     M anipulation  |                                                 |
\*---------------------------------------------------------------------------*/
FoamFile
{
    version     2.0;
    format      ascii;
    arch        "LSB;label=32;scalar=64";
    class       volScalarField;
    location    "2.5e-06";
    object      E;
}
// * * * * * * * * * * * * * * * * * * * * * * * * * * * * * * * * * * * * * //

dimensions      [0 0 0 0 0 0 0];

internalField   nonuniform List<scalar> 
84
(
99.1055
83.8866
84.4965
84.4818
84.4831
84.4842
84.4853
84.713
101.423
85.8916
86.5446
86.5607
86.594
86.6281
86.6632
86.8951
101.097
85.7614
86.3302
86.3468
86.3767
86.4073
86.4389
86.6704
100.905
85.5055
86.1491
86.1596
86.187
86.2151
86.4462
100.74
85.2949
85.936
85.9431
85.9672
85.9917
86.2223
100.501
85.0877
85.7243
85.7282
85.7488
85.7698
86
100.268
84.8853
85.5173
85.5179
85.5352
85.5528
85.7826
99.9896
84.7278
85.311
85.3107
85.3247
85.3389
85.5683
99.7993
84.5157
85.1388
85.1338
85.1452
85.3742
99.5332
84.2478
84.8663
84.8571
84.8642
85.0927
99.2855
84.0531
84.6661
84.6538
84.6576
84.8857
98.8228
83.8737
84.4568
84.4424
84.4429
84.4431
84.6708
)
;

boundaryField
{
    inlet
    {
        type            calculated;
        value           nonuniform List<scalar> 0();
    }
    outlet2
    {
        type            calculated;
        value           uniform 0;
    }
    outlet1
    {
        type            calculated;
        value           uniform 0;
    }
    wall
    {
        type            calculated;
        value           uniform 0;
    }
    symmetryBottom
    {
        type            symmetry;
    }
    symmetryZ0
    {
        type            symmetry;
    }
    symmetryZ05
    {
        type            symmetry;
    }
    procBoundary0to1
    {
        type            processor;
        value           uniform 0;
    }
}


// ************************************************************************* //
