/*--------------------------------*- C++ -*----------------------------------*\
| =========                 |                                                 |
| \\      /  F ield         | OpenFOAM: The Open Source CFD Toolbox           |
|  \\    /   O peration     | Version:  2412                                  |
|   \\  /    A nd           | Website:  www.openfoam.com                      |
|    \\/     M anipulation  |                                                 |
\*---------------------------------------------------------------------------*/
FoamFile
{
    version     2.0;
    format      ascii;
    arch        "LSB;label=32;scalar=64";
    class       volScalarField;
    location    "2.5e-06";
    object      rho;
}
// * * * * * * * * * * * * * * * * * * * * * * * * * * * * * * * * * * * * * //

dimensions      [0 0 0 0 0 0 0];

internalField   nonuniform List<scalar> 
84
(
2.80257e-05
2.37691e-05
2.39378e-05
2.39338e-05
2.39343e-05
2.39347e-05
2.39351e-05
2.39988e-05
2.8667e-05
2.43247e-05
2.45052e-05
2.45098e-05
2.45192e-05
2.45287e-05
2.45385e-05
2.46034e-05
2.85762e-05
2.4288e-05
2.44453e-05
2.445e-05
2.44584e-05
2.44669e-05
2.44758e-05
2.45405e-05
2.85224e-05
2.42166e-05
2.43946e-05
2.43976e-05
2.44053e-05
2.44131e-05
2.44778e-05
2.84762e-05
2.41577e-05
2.43349e-05
2.4337e-05
2.43438e-05
2.43506e-05
2.44151e-05
2.84091e-05
2.40993e-05
2.42753e-05
2.42765e-05
2.42823e-05
2.42881e-05
2.43526e-05
2.83419e-05
2.40412e-05
2.42159e-05
2.42161e-05
2.42209e-05
2.42258e-05
2.42901e-05
2.82621e-05
2.39951e-05
2.41563e-05
2.41562e-05
2.416e-05
2.4164e-05
2.42281e-05
2.81996e-05
2.39274e-05
2.40993e-05
2.40978e-05
2.41008e-05
2.41649e-05
2.81463e-05
2.38707e-05
2.40419e-05
2.40395e-05
2.40416e-05
2.41055e-05
2.80718e-05
2.38118e-05
2.39813e-05
2.3978e-05
2.39791e-05
2.40429e-05
2.79404e-05
2.37606e-05
2.39216e-05
2.39177e-05
2.39179e-05
2.39179e-05
2.39816e-05
)
;

boundaryField
{
    inlet
    {
        type            calculated;
        value           nonuniform List<scalar> 0();
    }
    outlet2
    {
        type            calculated;
        value           uniform 0;
    }
    outlet1
    {
        type            calculated;
        value           uniform 0;
    }
    wall
    {
        type            calculated;
        value           uniform 0;
    }
    symmetryBottom
    {
        type            symmetry;
    }
    symmetryZ0
    {
        type            symmetry;
    }
    symmetryZ05
    {
        type            symmetry;
    }
    procBoundary0to1
    {
        type            processor;
        value           uniform 0;
    }
}


// ************************************************************************* //
