/*--------------------------------*- C++ -*----------------------------------*\
| =========                 |                                                 |
| \\      /  F ield         | OpenFOAM: The Open Source CFD Toolbox           |
|  \\    /   O peration     | Version:  2412                                  |
|   \\  /    A nd           | Website:  www.openfoam.com                      |
|    \\/     M anipulation  |                                                 |
\*---------------------------------------------------------------------------*/
FoamFile
{
    version     2.0;
    format      ascii;
    arch        "LSB;label=32;scalar=64";
    class       volScalarField;
    location    "6e-07";
    object      E_dof0;
}
// * * * * * * * * * * * * * * * * * * * * * * * * * * * * * * * * * * * * * //

dimensions      [0 0 0 0 0 0 0];

internalField   nonuniform List<scalar> 
84
(
99.4604
95.5789
95.6114
95.6114
95.6115
95.6117
95.6118
95.6717
100.017
96.1254
96.1661
96.1745
96.1832
96.1923
96.2016
96.2617
99.9564
96.0728
96.1098
96.1173
96.1252
96.1333
96.1417
96.2019
99.908
96.0211
96.0604
96.0672
96.0745
96.0819
96.142
99.8549
95.9649
96.0033
96.0093
96.0156
96.0221
96.0822
99.7982
95.9091
95.9467
95.9518
95.9572
95.9628
96.0229
99.7427
95.8545
95.8913
95.8955
95.9001
95.9047
95.9648
99.685
95.8019
95.8362
95.8397
95.8433
95.8471
95.9071
99.6396
95.7548
95.7901
95.7928
95.7958
95.8558
99.5662
95.6804
95.7146
95.7161
95.7179
95.7779
99.5118
95.6279
95.6612
95.6619
95.6628
95.7228
99.3982
95.5733
95.6044
95.6042
95.6042
95.6043
95.6642
)
;

boundaryField
{
    inlet
    {
        type            calculated;
        value           nonuniform List<scalar> 0();
    }
    outlet2
    {
        type            calculated;
        value           uniform 99.4306;
    }
    outlet1
    {
        type            calculated;
        value           uniform 99.4306;
    }
    wall
    {
        type            calculated;
        value           uniform 99.4306;
    }
    symmetryBottom
    {
        type            symmetry;
    }
    symmetryZ0
    {
        type            symmetry;
    }
    symmetryZ05
    {
        type            symmetry;
    }
    procBoundary0to1
    {
        type            processor;
        value           uniform 99.4306;
    }
}


// ************************************************************************* //
