/*--------------------------------*- C++ -*----------------------------------*\
| =========                 |                                                 |
| \\      /  F ield         | OpenFOAM: The Open Source CFD Toolbox           |
|  \\    /   O peration     | Version:  2412                                  |
|   \\  /    A nd           | Website:  www.openfoam.com                      |
|    \\/     M anipulation  |                                                 |
\*---------------------------------------------------------------------------*/
FoamFile
{
    version     2.0;
    format      ascii;
    arch        "LSB;label=32;scalar=64";
    class       volScalarField;
    location    "6e-07";
    object      rho_dof0;
}
// * * * * * * * * * * * * * * * * * * * * * * * * * * * * * * * * * * * * * //

dimensions      [0 0 0 0 0 0 0];

internalField   nonuniform List<scalar> 
84
(
2.81185e-05
2.70337e-05
2.70427e-05
2.70427e-05
2.70428e-05
2.70429e-05
2.70429e-05
2.70597e-05
2.82725e-05
2.71849e-05
2.71962e-05
2.71986e-05
2.7201e-05
2.72035e-05
2.72061e-05
2.7223e-05
2.82555e-05
2.71702e-05
2.71805e-05
2.71826e-05
2.71848e-05
2.71871e-05
2.71894e-05
2.72062e-05
2.8242e-05
2.71558e-05
2.71667e-05
2.71686e-05
2.71706e-05
2.71727e-05
2.71895e-05
2.82272e-05
2.71401e-05
2.71507e-05
2.71524e-05
2.71542e-05
2.7156e-05
2.71728e-05
2.82112e-05
2.71244e-05
2.71348e-05
2.71362e-05
2.71377e-05
2.71393e-05
2.71561e-05
2.81952e-05
2.71087e-05
2.71189e-05
2.71201e-05
2.71213e-05
2.71226e-05
2.71394e-05
2.81786e-05
2.70935e-05
2.7103e-05
2.71039e-05
2.71049e-05
2.7106e-05
2.71227e-05
2.81636e-05
2.70781e-05
2.70878e-05
2.70885e-05
2.70893e-05
2.7106e-05
2.81482e-05
2.70623e-05
2.70718e-05
2.70722e-05
2.70727e-05
2.70895e-05
2.81318e-05
2.70464e-05
2.70556e-05
2.70558e-05
2.70561e-05
2.70728e-05
2.80996e-05
2.70308e-05
2.70394e-05
2.70394e-05
2.70394e-05
2.70394e-05
2.70561e-05
)
;

boundaryField
{
    inlet
    {
        type            calculated;
        value           nonuniform List<scalar> 0();
    }
    outlet2
    {
        type            calculated;
        value           uniform 2.81085e-05;
    }
    outlet1
    {
        type            calculated;
        value           uniform 2.81085e-05;
    }
    wall
    {
        type            calculated;
        value           uniform 2.81085e-05;
    }
    symmetryBottom
    {
        type            symmetry;
    }
    symmetryZ0
    {
        type            symmetry;
    }
    symmetryZ05
    {
        type            symmetry;
    }
    procBoundary0to1
    {
        type            processor;
        value           uniform 2.81085e-05;
    }
}


// ************************************************************************* //
