/*--------------------------------*- C++ -*----------------------------------*\
| =========                 |                                                 |
| \\      /  F ield         | OpenFOAM: The Open Source CFD Toolbox           |
|  \\    /   O peration     | Version:  2412                                  |
|   \\  /    A nd           | Website:  www.openfoam.com                      |
|    \\/     M anipulation  |                                                 |
\*---------------------------------------------------------------------------*/
FoamFile
{
    version     2.0;
    format      ascii;
    arch        "LSB;label=32;scalar=64";
    class       volVectorField;
    location    "6e-07";
    object      rhoU;
}
// * * * * * * * * * * * * * * * * * * * * * * * * * * * * * * * * * * * * * //

dimensions      [0 0 0 0 0 0 0];

internalField   nonuniform List<vector> 
84
(
(0.0741279 1.7927e-05 2.06345e-20)
(0.0712513 1.75566e-05 -2.04633e-20)
(0.0712753 1.78213e-05 -4.59486e-20)
(0.0712753 1.80894e-05 2.18844e-20)
(0.0712754 1.83656e-05 3.34435e-22)
(0.0712755 1.86505e-05 2.50119e-21)
(0.0712756 1.89443e-05 4.34541e-20)
(0.07132 1.89525e-05 9.03839e-21)
(0.0745397 -1.78881e-05 1.62636e-20)
(0.0716555 -1.76203e-05 -1.77442e-20)
(0.0716856 -1.78862e-05 -5.73278e-20)
(0.0716918 -1.81569e-05 1.07341e-21)
(0.0716983 -1.8436e-05 -9.58428e-20)
(0.071705 -1.87238e-05 1.00834e-20)
(0.0717119 -1.90207e-05 8.10042e-20)
(0.0717565 -1.90272e-05 2.09336e-20)
(0.0744946 -1.77149e-05 -8.6366e-20)
(0.0716165 -1.77118e-05 1.28375e-20)
(0.0716439 -1.78784e-05 2.88028e-20)
(0.0716495 -1.81495e-05 -5.46214e-22)
(0.0716553 -1.84284e-05 -3.7169e-22)
(0.0716613 -1.87159e-05 4.00787e-20)
(0.0716675 -1.90126e-05 -3.07171e-20)
(0.0717121 -1.90191e-05 -3.90118e-20)
(0.0744588 -1.79954e-05 -8.79362e-20)
(0.0715783 -1.78692e-05 3.92138e-20)
(0.0716072 -1.81421e-05 -6.24283e-22)
(0.0716123 -1.84208e-05 -9.10602e-20)
(0.0716177 -1.87081e-05 8.13693e-20)
(0.0716232 -1.90045e-05 2.16074e-20)
(0.0716677 -1.9011e-05 -3.1245e-20)
(0.0744195 -1.81301e-05 -4.86216e-20)
(0.0715366 -1.78611e-05 -1.91245e-20)
(0.0715649 -1.81344e-05 1.66924e-22)
(0.0715694 -1.84128e-05 3.36252e-23)
(0.071574 -1.86999e-05 -2.70877e-20)
(0.0715789 -1.8996e-05 2.36286e-20)
(0.0716234 -1.90026e-05 6.18731e-20)
(0.0743771 -1.71934e-05 -3.105e-20)
(0.0714949 -1.69317e-05 4.84164e-20)
(0.0715226 -1.71911e-05 -3.92386e-22)
(0.0715264 -1.74552e-05 5.9544e-20)
(0.0715304 -1.77276e-05 -5.2291e-20)
(0.0715345 -1.80086e-05 4.13755e-20)
(0.071579 -1.80149e-05 -9.43286e-20)
(0.0743345 -1.38712e-05 -1.22335e-24)
(0.071453 -1.3649e-05 4.6605e-20)
(0.0714801 -1.38581e-05 -3.89887e-22)
(0.0714832 -1.4071e-05 -1.52191e-22)
(0.0714866 -1.42904e-05 5.19814e-20)
(0.07149 -1.45169e-05 8.18988e-21)
(0.0715345 -1.45221e-05 5.32122e-20)
(0.0742903 -1.1559e-05 -5.48509e-23)
(0.0714126 -1.15739e-05 -1.07084e-23)
(0.0714378 -1.16721e-05 -1.51524e-22)
(0.0714403 -1.1852e-05 -7.49227e-23)
(0.071443 -1.20369e-05 3.06806e-23)
(0.0714457 -1.22277e-05 -2.90799e-23)
(0.0714902 -1.22324e-05 -3.99098e-20)
(0.0742506 -1.07258e-05 9.78354e-20)
(0.0713717 -1.06156e-05 -8.15002e-22)
(0.0713975 -1.07805e-05 -9.77897e-20)
(0.0713994 -1.09486e-05 -4.07595e-20)
(0.0714015 -1.11219e-05 4.714e-20)
(0.0714459 -1.11263e-05 -2.74174e-23)
(0.0742098 -1.08861e-05 -3.97373e-20)
(0.07133 -1.06862e-05 3.3236e-22)
(0.0713552 -1.0852e-05 -4.9679e-20)
(0.0713565 -1.10204e-05 4.93604e-20)
(0.0713579 -1.11941e-05 9.16891e-20)
(0.0714023 -1.11986e-05 2.1182e-24)
(0.0741663 -1.21371e-05 -4.97245e-20)
(0.0712879 -1.19699e-05 4.05572e-22)
(0.0713125 -1.21554e-05 1.67625e-23)
(0.071313 -1.23442e-05 9.06006e-20)
(0.0713137 -1.2539e-05 1.00088e-19)
(0.0713582 -1.2544e-05 1.3256e-20)
(0.0740811 -1.77534e-07 -3.7539e-22)
(0.0712468 -1.43267e-05 1.67845e-24)
(0.0712697 -1.438e-05 -4.1556e-27)
(0.0712696 -1.46007e-05 5.95213e-20)
(0.0712696 -1.48274e-05 -5.09695e-22)
(0.0712696 -1.50613e-05 2.31696e-24)
(0.0713141 -1.50677e-05 -4.71421e-20)
)
;

boundaryField
{
    inlet
    {
        type            calculated;
        value           nonuniform List<vector> 0();
    }
    outlet2
    {
        type            calculated;
        value           uniform (0 0 0);
    }
    outlet1
    {
        type            calculated;
        value           uniform (0 0 0);
    }
    wall
    {
        type            calculated;
        value           uniform (0 0 0);
    }
    symmetryBottom
    {
        type            symmetry;
    }
    symmetryZ0
    {
        type            symmetry;
    }
    symmetryZ05
    {
        type            symmetry;
    }
    procBoundary0to1
    {
        type            processor;
        value           uniform (0 0 0);
    }
}


// ************************************************************************* //
