/*--------------------------------*- C++ -*----------------------------------*\
| =========                 |                                                 |
| \\      /  F ield         | OpenFOAM: The Open Source CFD Toolbox           |
|  \\    /   O peration     | Version:  2412                                  |
|   \\  /    A nd           | Website:  www.openfoam.com                      |
|    \\/     M anipulation  |                                                 |
\*---------------------------------------------------------------------------*/
FoamFile
{
    version     2.0;
    format      ascii;
    arch        "LSB;label=32;scalar=64";
    class       volScalarField;
    location    "5.2e-06";
    object      rho_dof0;
}
// * * * * * * * * * * * * * * * * * * * * * * * * * * * * * * * * * * * * * //

dimensions      [0 0 0 0 0 0 0];

internalField   nonuniform List<scalar> 
84
(
2.76219e-05
1.94862e-05
2.01704e-05
2.01337e-05
2.01362e-05
2.01373e-05
2.01384e-05
2.02549e-05
2.89403e-05
2.04379e-05
2.11679e-05
2.11447e-05
2.1163e-05
2.11802e-05
2.1198e-05
2.13192e-05
2.87024e-05
2.04303e-05
2.10524e-05
2.10381e-05
2.10541e-05
2.10695e-05
2.10855e-05
2.12061e-05
2.85991e-05
2.02523e-05
2.09698e-05
2.09441e-05
2.09594e-05
2.09735e-05
2.10937e-05
2.8542e-05
2.01461e-05
2.08635e-05
2.08361e-05
2.08496e-05
2.0862e-05
2.09817e-05
2.84018e-05
2.00447e-05
2.07571e-05
2.07281e-05
2.07399e-05
2.07504e-05
2.08697e-05
2.82613e-05
1.99439e-05
2.06509e-05
2.06205e-05
2.06306e-05
2.06393e-05
2.0758e-05
2.8071e-05
1.98964e-05
2.05411e-05
2.0515e-05
2.0523e-05
2.053e-05
2.06483e-05
2.79417e-05
1.97474e-05
2.04421e-05
2.04089e-05
2.04155e-05
2.05333e-05
2.78599e-05
1.96522e-05
2.03456e-05
2.0311e-05
2.03163e-05
2.04336e-05
2.76917e-05
1.95517e-05
2.02369e-05
2.0201e-05
2.02044e-05
2.03212e-05
2.74277e-05
1.94803e-05
2.01312e-05
2.00965e-05
2.00981e-05
2.00983e-05
2.02148e-05
)
;

boundaryField
{
    inlet
    {
        type            calculated;
        value           nonuniform List<scalar> 0();
    }
    outlet2
    {
        type            calculated;
        value           uniform 2.81085e-05;
    }
    outlet1
    {
        type            calculated;
        value           uniform 2.81085e-05;
    }
    wall
    {
        type            calculated;
        value           uniform 2.81085e-05;
    }
    symmetryBottom
    {
        type            symmetry;
    }
    symmetryZ0
    {
        type            symmetry;
    }
    symmetryZ05
    {
        type            symmetry;
    }
    procBoundary0to1
    {
        type            processor;
        value           uniform 2.81085e-05;
    }
}


// ************************************************************************* //
