/*--------------------------------*- C++ -*----------------------------------*\
| =========                 |                                                 |
| \\      /  F ield         | OpenFOAM: The Open Source CFD Toolbox           |
|  \\    /   O peration     | Version:  2412                                  |
|   \\  /    A nd           | Website:  www.openfoam.com                      |
|    \\/     M anipulation  |                                                 |
\*---------------------------------------------------------------------------*/
FoamFile
{
    version     2.0;
    format      ascii;
    arch        "LSB;label=32;scalar=64";
    class       volVectorField;
    location    "1.5e-06";
    object      rhoU;
}
// * * * * * * * * * * * * * * * * * * * * * * * * * * * * * * * * * * * * * //

dimensions      [0 0 0 0 0 0 0];

internalField   nonuniform List<vector> 
84
(
(0.074065 4.4525e-05 4.75587e-20)
(0.0670769 4.10919e-05 -4.9139e-20)
(0.0672395 4.17894e-05 -1.09886e-19)
(0.0672375 4.24133e-05 5.05741e-20)
(0.0672379 4.30575e-05 -5.04962e-22)
(0.0672383 4.37216e-05 6.05482e-21)
(0.0672387 4.44065e-05 1.0273e-19)
(0.067345 4.44582e-05 2.20368e-20)
(0.0750951 -4.50298e-05 4.50531e-20)
(0.0680297 -4.18611e-05 -4.51218e-20)
(0.0682085 -4.25683e-05 -1.35331e-19)
(0.0682211 -4.32173e-05 4.63104e-21)
(0.0682366 -4.38875e-05 -2.33993e-19)
(0.0682526 -4.45787e-05 2.99831e-20)
(0.0682691 -4.52921e-05 1.94367e-19)
(0.0683765 -4.53394e-05 4.92748e-20)
(0.0749665 -4.37953e-05 -2.10467e-19)
(0.067951 -4.26969e-05 3.09888e-20)
(0.0681088 -4.24914e-05 6.88163e-20)
(0.0681204 -4.31624e-05 -2.33875e-21)
(0.0681344 -4.38305e-05 -1.29977e-21)
(0.0681487 -4.452e-05 9.51084e-20)
(0.0681636 -4.52315e-05 -7.49888e-20)
(0.0682709 -4.52788e-05 -9.93443e-20)
(0.0748788 -4.46312e-05 -2.11665e-19)
(0.0678466 -4.23948e-05 9.70974e-20)
(0.0680223 -4.31079e-05 -2.95053e-21)
(0.0680323 -4.37737e-05 -2.17695e-19)
(0.068045 -4.44613e-05 1.95382e-19)
(0.0680582 -4.5171e-05 4.5449e-20)
(0.0681654 -4.52182e-05 -7.28224e-20)
(0.0747927 -4.5536e-05 -1.16523e-19)
(0.0677476 -4.23292e-05 -4.53195e-20)
(0.0679218 -4.30545e-05 1.05433e-21)
(0.0679303 -4.37186e-05 2.89775e-22)
(0.0679414 -4.44046e-05 -6.7777e-20)
(0.0679529 -4.51124e-05 5.22222e-20)
(0.06806 -4.51597e-05 1.45752e-19)
(0.0746861 -4.32765e-05 -7.1291e-20)
(0.0676487 -4.0203e-05 1.17258e-19)
(0.0678212 -4.08949e-05 -2.6931e-21)
(0.0678281 -4.15276e-05 1.44164e-19)
(0.0678377 -4.21812e-05 -1.20956e-19)
(0.0678476 -4.28558e-05 1.03951e-19)
(0.0679546 -4.29011e-05 -2.27179e-19)
(0.074579 -3.4873e-05 -8.05796e-24)
(0.0675496 -3.2371e-05 1.17743e-19)
(0.0677204 -3.29273e-05 -2.67308e-21)
(0.0677257 -3.3436e-05 -3.3307e-22)
(0.0677337 -3.39615e-05 1.21081e-19)
(0.0677419 -3.45037e-05 2.1331e-20)
(0.0678487 -3.45407e-05 1.27199e-19)
(0.0744602 -2.84525e-05 2.62603e-22)
(0.0674617 -2.79879e-05 1.86385e-22)
(0.0676201 -2.77409e-05 -3.70931e-22)
(0.0676242 -2.81889e-05 -3.84231e-22)
(0.0676305 -2.86323e-05 -7.66973e-24)
(0.0676371 -2.90901e-05 4.01834e-23)
(0.0677438 -2.91218e-05 -9.325e-20)
(0.0743607 -2.65235e-05 2.50788e-19)
(0.0673565 -2.50868e-05 -5.65266e-21)
(0.067524 -2.55179e-05 -2.34829e-19)
(0.0675263 -2.59165e-05 -9.48582e-20)
(0.0675312 -2.63283e-05 1.20694e-19)
(0.0676379 -2.63575e-05 -6.6977e-23)
(0.0742674 -2.71134e-05 -9.08587e-20)
(0.0672599 -2.50973e-05 2.12306e-21)
(0.0674258 -2.55331e-05 -1.16157e-19)
(0.0674267 -2.59276e-05 1.19257e-19)
(0.06743 -2.63353e-05 2.16451e-19)
(0.0675366 -2.63648e-05 1.87457e-23)
(0.0741539 -2.99126e-05 -1.22152e-19)
(0.0671601 -2.8166e-05 2.76492e-21)
(0.0673242 -2.86423e-05 3.81845e-23)
(0.0673234 -2.90862e-05 2.14029e-19)
(0.0673252 -2.95447e-05 2.35588e-19)
(0.0674316 -2.95778e-05 2.50238e-20)
(0.0739429 -1.18836e-06 -2.52046e-21)
(0.0670678 -3.43705e-05 3.60812e-23)
(0.0672233 -3.38189e-05 -3.56967e-25)
(0.0672212 -3.43546e-05 1.41055e-19)
(0.0672213 -3.48865e-05 -3.33192e-21)
(0.0672214 -3.54355e-05 4.80781e-23)
(0.0673277 -3.54761e-05 -1.22305e-19)
)
;

boundaryField
{
    inlet
    {
        type            calculated;
        value           nonuniform List<vector> 0();
    }
    outlet2
    {
        type            calculated;
        value           uniform (0 0 0);
    }
    outlet1
    {
        type            calculated;
        value           uniform (0 0 0);
    }
    wall
    {
        type            calculated;
        value           uniform (0 0 0);
    }
    symmetryBottom
    {
        type            symmetry;
    }
    symmetryZ0
    {
        type            symmetry;
    }
    symmetryZ05
    {
        type            symmetry;
    }
    procBoundary0to1
    {
        type            processor;
        value           uniform (0 0 0);
    }
}


// ************************************************************************* //
