/*--------------------------------*- C++ -*----------------------------------*\
| =========                 |                                                 |
| \\      /  F ield         | OpenFOAM: The Open Source CFD Toolbox           |
|  \\    /   O peration     | Version:  2412                                  |
|   \\  /    A nd           | Website:  www.openfoam.com                      |
|    \\/     M anipulation  |                                                 |
\*---------------------------------------------------------------------------*/
FoamFile
{
    version     2.0;
    format      ascii;
    arch        "LSB;label=32;scalar=64";
    class       volVectorField;
    location    "1.5e-06";
    object      U;
}
// * * * * * * * * * * * * * * * * * * * * * * * * * * * * * * * * * * * * * //

dimensions      [0 0 0 0 0 0 0];

internalField   nonuniform List<vector> 
84
(
(2636.06 1.58469 1.69267e-15)
(2634.48 1.6139 -1.92996e-15)
(2634.55 1.63738 -4.30553e-15)
(2634.55 1.66187 1.98163e-15)
(2634.54 1.6871 -1.97856e-17)
(2634.54 1.71311 2.37241e-16)
(2634.53 1.73993 4.02513e-15)
(2634.56 1.73922 8.62088e-16)
(2636.56 -1.58098 1.5818e-15)
(2635 -1.62141 -1.74771e-15)
(2635.08 -1.64453 -5.22821e-15)
(2635.09 -1.6693 1.78877e-16)
(2635.09 -1.6948 -9.0361e-15)
(2635.09 -1.72109 1.15759e-15)
(2635.1 -1.74822 7.50232e-15)
(2635.12 -1.74731 1.89897e-15)
(2636.53 -1.54026 -7.40202e-15)
(2634.99 -1.65569 1.20168e-15)
(2635.06 -1.64395 2.66243e-15)
(2635.06 -1.66963 -9.04684e-17)
(2635.07 -1.69513 -5.0268e-17)
(2635.07 -1.72143 3.6775e-15)
(2635.07 -1.74856 -2.89892e-15)
(2635.1 -1.74766 -3.83446e-15)
(2636.51 -1.57149 -7.45282e-15)
(2634.96 -1.64649 3.77097e-15)
(2635.04 -1.66991 -1.14298e-16)
(2635.04 -1.69545 -8.4318e-15)
(2635.04 -1.72177 7.56619e-15)
(2635.05 -1.74891 1.75968e-15)
(2635.07 -1.748 -2.8151e-15)
(2636.5 -1.60518 -4.10753e-15)
(2634.94 -1.64633 -1.76263e-15)
(2635.02 -1.67029 4.09028e-17)
(2635.02 -1.69585 1.12404e-17)
(2635.02 -1.72217 -2.62864e-15)
(2635.02 -1.74933 2.02503e-15)
(2635.05 -1.74843 5.64299e-15)
(2636.47 -1.52769 -2.51662e-15)
(2634.91 -1.5659 4.5672e-15)
(2634.98 -1.58885 -1.04632e-16)
(2634.99 -1.61326 5.6005e-15)
(2634.99 -1.63843 -4.69825e-15)
(2634.99 -1.66439 4.03713e-15)
(2635.02 -1.66354 -8.80911e-15)
(2636.42 -1.23279 -2.84855e-19)
(2634.86 -1.26267 4.59272e-15)
(2634.93 -1.28117 -1.04007e-16)
(2634.93 -1.30086 -1.29584e-17)
(2634.94 -1.32115 4.71021e-15)
(2634.94 -1.34208 8.29707e-16)
(2634.96 -1.34142 4.93988e-15)
(2636.39 -1.00741 9.29789e-18)
(2634.83 -1.09311 7.27956e-18)
(2634.9 -1.08096 -1.44538e-17)
(2634.9 -1.09835 -1.49711e-17)
(2634.9 -1.11552 -2.98815e-19)
(2634.9 -1.13325 1.5654e-18)
(2634.93 -1.1327 -3.627e-15)
(2636.37 -0.940356 8.89138e-15)
(2634.79 -0.981324 -2.21116e-16)
(2634.87 -0.995741 -9.16331e-15)
(2634.87 -1.01126 -3.70136e-15)
(2634.87 -1.02725 4.70913e-15)
(2634.9 -1.02678 -2.60915e-18)
(2636.36 -0.96248 -3.22532e-15)
(2634.8 -0.983146 8.31677e-17)
(2634.88 -0.997785 -4.53918e-15)
(2634.88 -1.01319 4.66027e-15)
(2634.88 -1.02907 8.45799e-15)
(2634.9 -1.02861 7.31353e-19)
(2636.35 -1.06346 -4.34281e-15)
(2634.78 -1.10499 1.08472e-16)
(2634.86 -1.12097 1.49442e-18)
(2634.86 -1.13836 8.37652e-15)
(2634.86 -1.15627 9.22005e-15)
(2634.89 -1.15575 9.77803e-16)
(2636.32 -0.042369 -8.98632e-17)
(2634.77 -1.35025 1.41746e-18)
(2634.85 -1.32555 -1.39915e-20)
(2634.85 -1.34659 5.5289e-15)
(2634.85 -1.36743 -1.306e-16)
(2634.85 -1.38895 1.88449e-18)
(2634.87 -1.38836 -4.78641e-15)
)
;

boundaryField
{
    inlet
    {
        type            calculated;
        value           nonuniform List<vector> 0();
    }
    outlet2
    {
        type            calculated;
        value           uniform (0 0 0);
    }
    outlet1
    {
        type            calculated;
        value           uniform (0 0 0);
    }
    wall
    {
        type            calculated;
        value           uniform (0 0 0);
    }
    symmetryBottom
    {
        type            symmetry;
    }
    symmetryZ0
    {
        type            symmetry;
    }
    symmetryZ05
    {
        type            symmetry;
    }
    procBoundary0to1
    {
        type            processor;
        value           uniform (0 0 0);
    }
}


// ************************************************************************* //
