/*--------------------------------*- C++ -*----------------------------------*\
| =========                 |                                                 |
| \\      /  F ield         | OpenFOAM: The Open Source CFD Toolbox           |
|  \\    /   O peration     | Version:  2412                                  |
|   \\  /    A nd           | Website:  www.openfoam.com                      |
|    \\/     M anipulation  |                                                 |
\*---------------------------------------------------------------------------*/
FoamFile
{
    version     2.0;
    format      ascii;
    arch        "LSB;label=32;scalar=64";
    class       volScalarField;
    location    "1e-07";
    object      E_dof0;
}
// * * * * * * * * * * * * * * * * * * * * * * * * * * * * * * * * * * * * * //

dimensions      [0 0 0 0 0 0 0];

internalField   nonuniform List<scalar> 
84
(
99.4408
98.7831
98.7831
98.7831
98.7831
98.7831
98.7832
98.7934
99.5335
98.8772
98.8786
98.88
98.8815
98.8831
98.8846
98.8949
99.5241
98.8677
98.8689
98.8702
98.8716
98.873
98.8744
98.8846
99.516
98.8593
98.8605
98.8617
98.8629
98.8642
98.8744
99.5065
98.8497
98.8507
98.8517
98.8528
98.8539
98.8642
99.4971
98.8401
98.841
98.8419
98.8428
98.8438
98.854
99.4879
98.8308
98.8315
98.8322
98.833
98.8338
98.8441
99.4787
98.8214
98.822
98.8226
98.8233
98.8239
98.8341
99.4711
98.8136
98.8141
98.8146
98.8151
98.8254
99.4585
98.8008
98.8011
98.8014
98.8017
98.8119
99.4496
98.7918
98.7919
98.7921
98.7922
98.8024
99.4306
98.7822
98.7822
98.7822
98.7822
98.7822
98.7924
)
;

boundaryField
{
    inlet
    {
        type            calculated;
        value           nonuniform List<scalar> 0();
    }
    outlet2
    {
        type            calculated;
        value           uniform 99.4306;
    }
    outlet1
    {
        type            calculated;
        value           uniform 99.4306;
    }
    wall
    {
        type            calculated;
        value           uniform 99.4306;
    }
    symmetryBottom
    {
        type            symmetry;
    }
    symmetryZ0
    {
        type            symmetry;
    }
    symmetryZ05
    {
        type            symmetry;
    }
    procBoundary0to1
    {
        type            processor;
        value           uniform 99.4306;
    }
}


// ************************************************************************* //
