/*--------------------------------*- C++ -*----------------------------------*\
| =========                 |                                                 |
| \\      /  F ield         | OpenFOAM: The Open Source CFD Toolbox           |
|  \\    /   O peration     | Version:  2412                                  |
|   \\  /    A nd           | Website:  www.openfoam.com                      |
|    \\/     M anipulation  |                                                 |
\*---------------------------------------------------------------------------*/
FoamFile
{
    version     2.0;
    format      ascii;
    arch        "LSB;label=32;scalar=64";
    class       volScalarField;
    location    "1e-07";
    object      rho;
}
// * * * * * * * * * * * * * * * * * * * * * * * * * * * * * * * * * * * * * //

dimensions      [0 0 0 0 0 0 0];

internalField   nonuniform List<scalar> 
84
(
2.81116e-05
2.79278e-05
2.79278e-05
2.79279e-05
2.79279e-05
2.79279e-05
2.79279e-05
2.79307e-05
2.81372e-05
2.79539e-05
2.79543e-05
2.79547e-05
2.79551e-05
2.79555e-05
2.7956e-05
2.79588e-05
2.81346e-05
2.79512e-05
2.79516e-05
2.79519e-05
2.79523e-05
2.79527e-05
2.79531e-05
2.7956e-05
2.81324e-05
2.79489e-05
2.79492e-05
2.79495e-05
2.79499e-05
2.79502e-05
2.79531e-05
2.81297e-05
2.79462e-05
2.79465e-05
2.79468e-05
2.79471e-05
2.79474e-05
2.79502e-05
2.81271e-05
2.79435e-05
2.79437e-05
2.7944e-05
2.79442e-05
2.79445e-05
2.79474e-05
2.81244e-05
2.79408e-05
2.7941e-05
2.79412e-05
2.79414e-05
2.79417e-05
2.79445e-05
2.81218e-05
2.79381e-05
2.79383e-05
2.79384e-05
2.79386e-05
2.79388e-05
2.79417e-05
2.81193e-05
2.79355e-05
2.79357e-05
2.79358e-05
2.79359e-05
2.79388e-05
2.81166e-05
2.79328e-05
2.79329e-05
2.7933e-05
2.79331e-05
2.79359e-05
2.81139e-05
2.79301e-05
2.79301e-05
2.79302e-05
2.79302e-05
2.79331e-05
2.81085e-05
2.79274e-05
2.79274e-05
2.79274e-05
2.79274e-05
2.79274e-05
2.79302e-05
)
;

boundaryField
{
    inlet
    {
        type            calculated;
        value           nonuniform List<scalar> 0();
    }
    outlet2
    {
        type            calculated;
        value           uniform 0;
    }
    outlet1
    {
        type            calculated;
        value           uniform 0;
    }
    wall
    {
        type            calculated;
        value           uniform 0;
    }
    symmetryBottom
    {
        type            symmetry;
    }
    symmetryZ0
    {
        type            symmetry;
    }
    symmetryZ05
    {
        type            symmetry;
    }
    procBoundary0to1
    {
        type            processor;
        value           uniform 0;
    }
}


// ************************************************************************* //
