/*--------------------------------*- C++ -*----------------------------------*\
| =========                 |                                                 |
| \\      /  F ield         | OpenFOAM: The Open Source CFD Toolbox           |
|  \\    /   O peration     | Version:  2412                                  |
|   \\  /    A nd           | Website:  www.openfoam.com                      |
|    \\/     M anipulation  |                                                 |
\*---------------------------------------------------------------------------*/
FoamFile
{
    version     2.0;
    format      ascii;
    arch        "LSB;label=32;scalar=64";
    class       volScalarField;
    location    "2.4e-06";
    object      rho_dof0;
}
// * * * * * * * * * * * * * * * * * * * * * * * * * * * * * * * * * * * * * //

dimensions      [0 0 0 0 0 0 0];

internalField   nonuniform List<scalar> 
84
(
2.81089e-05
1.836e-05
1.92286e-05
2.81105e-05
1.83631e-05
1.92314e-05
2.81101e-05
1.83628e-05
1.92311e-05
2.81101e-05
1.83628e-05
1.92311e-05
2.81101e-05
1.83628e-05
1.92311e-05
2.81101e-05
1.83628e-05
1.92311e-05
2.81101e-05
1.83628e-05
1.92311e-05
2.81101e-05
1.83628e-05
1.92311e-05
2.81101e-05
1.83628e-05
1.92311e-05
2.81101e-05
1.83628e-05
1.92311e-05
2.81101e-05
1.83628e-05
1.92311e-05
2.81101e-05
1.8362e-05
1.92304e-05
2.42837e-05
2.40814e-05
2.4141e-05
2.48148e-05
2.45982e-05
2.46592e-05
2.47597e-05
2.45445e-05
2.46052e-05
2.47047e-05
2.4491e-05
2.45027e-05
2.40576e-05
2.46498e-05
2.44376e-05
2.44484e-05
2.45042e-05
2.4595e-05
2.43842e-05
2.43942e-05
2.445e-05
2.45402e-05
2.4331e-05
2.43401e-05
2.43958e-05
2.44858e-05
2.4278e-05
2.42864e-05
2.43418e-05
2.44305e-05
2.42242e-05
2.42317e-05
2.42339e-05
2.40674e-05
2.43781e-05
2.41732e-05
2.41799e-05
2.41814e-05
2.42372e-05
2.43232e-05
2.41198e-05
2.41257e-05
2.41265e-05
2.41878e-05
2.42693e-05
2.40673e-05
2.40724e-05
2.41276e-05
)
;

boundaryField
{
    inlet
    {
        type            calculated;
        value           uniform 2.81085e-05;
    }
    outlet2
    {
        type            calculated;
        value           uniform 2.81085e-05;
    }
    outlet1
    {
        type            calculated;
        value           nonuniform List<scalar> 0();
    }
    wall
    {
        type            calculated;
        value           uniform 2.81085e-05;
    }
    symmetryBottom
    {
        type            symmetry;
    }
    symmetryZ0
    {
        type            symmetry;
    }
    symmetryZ05
    {
        type            symmetry;
    }
    procBoundary1to0
    {
        type            processor;
        value           uniform 2.81085e-05;
    }
}


// ************************************************************************* //
