/*--------------------------------*- C++ -*----------------------------------*\
| =========                 |                                                 |
| \\      /  F ield         | OpenFOAM: The Open Source CFD Toolbox           |
|  \\    /   O peration     | Version:  2412                                  |
|   \\  /    A nd           | Website:  www.openfoam.com                      |
|    \\/     M anipulation  |                                                 |
\*---------------------------------------------------------------------------*/
FoamFile
{
    version     2.0;
    format      ascii;
    arch        "LSB;label=32;scalar=64";
    class       volVectorField;
    location    "2.4e-06";
    object      rhoU;
}
// * * * * * * * * * * * * * * * * * * * * * * * * * * * * * * * * * * * * * //

dimensions      [0 0 0 0 0 0 0];

internalField   nonuniform List<vector> 
84
(
(0.0741059 -1.00597e-07 0)
(0.0482636 -2.91622e-07 0)
(0.0505793 -2.56114e-07 -7.33807e-20)
(0.0741102 -6.12811e-05 0)
(0.0482718 -4.49804e-05 0)
(0.0505868 -4.65564e-05 -7.02575e-20)
(0.0741091 -6.11737e-05 0)
(0.048271 -4.48994e-05 0)
(0.0505859 -4.64727e-05 1.04606e-19)
(0.0741091 -6.11737e-05 0)
(0.048271 -4.48994e-05 0)
(0.0505859 -4.64727e-05 -1.35848e-19)
(0.0741091 -6.11737e-05 0)
(0.048271 -4.48994e-05 0)
(0.0505859 -4.64727e-05 -2.27953e-19)
(0.0741091 -6.11737e-05 0)
(0.048271 -4.48994e-05 0)
(0.0505859 -4.64727e-05 1.31148e-19)
(0.0741091 -6.11737e-05 0)
(0.048271 -4.48994e-05 0)
(0.0505859 -4.64727e-05 -1.6395e-19)
(0.0741091 -6.11737e-05 0)
(0.048271 -4.48994e-05 0)
(0.0505859 -4.64727e-05 -1.95167e-19)
(0.0741091 -6.11737e-05 0)
(0.048271 -4.48994e-05 0)
(0.0505859 -4.64727e-05 7.33771e-20)
(0.0741091 -6.11737e-05 0)
(0.048271 -4.48994e-05 0)
(0.0505859 -4.64727e-05 -1.63959e-19)
(0.0741091 -6.11737e-05 0)
(0.048271 -4.48987e-05 0)
(0.0505859 -4.64722e-05 -4.02831e-19)
(0.0741092 -6.11823e-05 0)
(0.0482689 -4.46909e-05 0)
(0.0505842 -4.63023e-05 0)
(0.0639566 6.08441e-05 2.83296e-21)
(0.0634177 5.91866e-05 6.42068e-20)
(0.0635758 5.9349e-05 6.41543e-21)
(0.0653756 -6.07453e-05 2.72744e-21)
(0.0647981 -6.1107e-05 6.94922e-20)
(0.06496 -6.12147e-05 -6.81132e-22)
(0.0652296 -6.0624e-05 -4.36297e-21)
(0.064656 -6.09846e-05 -3.16048e-20)
(0.064817 -6.10688e-05 -1.40674e-19)
(0.0650839 -6.05006e-05 5.61089e-21)
(0.0645142 -6.08625e-05 -1.18712e-21)
(0.0645452 -6.17538e-05 3.8213e-23)
(0.0633657 1.64675e-06 9.80589e-20)
(0.0649384 -6.03831e-05 -2.64404e-20)
(0.0643727 -6.07459e-05 -7.40944e-24)
(0.0644014 -6.16338e-05 -1.05e-21)
(0.0645494 -6.17322e-05 1.01449e-19)
(0.0647927 -5.73485e-05 -5.47775e-21)
(0.0642309 -5.7797e-05 -6.93935e-20)
(0.0642575 -5.86435e-05 6.25814e-22)
(0.0644052 -5.87379e-05 6.65645e-20)
(0.0646465 -4.57531e-05 6.3119e-21)
(0.0640887 -4.65019e-05 -3.1202e-22)
(0.064113 -4.71714e-05 -3.79235e-22)
(0.0642606 -4.7248e-05 -5.49244e-22)
(0.064502 -3.83035e-05 8.38938e-21)
(0.063948 -3.92448e-05 -6.55485e-20)
(0.0639702 -3.98032e-05 7.20088e-20)
(0.0641172 -3.98512e-05 6.13576e-22)
(0.0643552 -3.43517e-05 -2.81498e-21)
(0.0638049 -3.5389e-05 -1.00413e-19)
(0.0638249 -3.58826e-05 -9.83278e-20)
(0.0638308 -3.64045e-05 1.09384e-19)
(0.0633912 1.75923e-06 6.62793e-19)
(0.0642172 -3.42137e-05 7.04456e-21)
(0.0636712 -3.52484e-05 -1.00922e-19)
(0.0636892 -3.57321e-05 6.92005e-20)
(0.0636932 -3.62446e-05 1.64534e-19)
(0.0638411 -3.63878e-05 1.01267e-19)
(0.0640721 -3.86711e-05 1.71913e-20)
(0.0635299 -3.95834e-05 -3.8981e-22)
(0.0635457 -4.01352e-05 1.36324e-22)
(0.0635478 -4.07295e-05 -4.52728e-23)
(0.0637103 -4.19105e-05 -1.00914e-19)
(0.0639297 -4.67358e-05 7.46901e-23)
(0.0633912 -4.74169e-05 9.69681e-20)
(0.0634049 -4.80866e-05 -3.67448e-21)
(0.0635511 -4.81573e-05 -1.72453e-19)
)
;

boundaryField
{
    inlet
    {
        type            calculated;
        value           uniform (0 0 0);
    }
    outlet2
    {
        type            calculated;
        value           uniform (0 0 0);
    }
    outlet1
    {
        type            calculated;
        value           nonuniform List<vector> 0();
    }
    wall
    {
        type            calculated;
        value           uniform (0 0 0);
    }
    symmetryBottom
    {
        type            symmetry;
    }
    symmetryZ0
    {
        type            symmetry;
    }
    symmetryZ05
    {
        type            symmetry;
    }
    procBoundary1to0
    {
        type            processor;
        value           uniform (0 0 0);
    }
}


// ************************************************************************* //
