/*--------------------------------*- C++ -*----------------------------------*\
| =========                 |                                                 |
| \\      /  F ield         | OpenFOAM: The Open Source CFD Toolbox           |
|  \\    /   O peration     | Version:  2412                                  |
|   \\  /    A nd           | Website:  www.openfoam.com                      |
|    \\/     M anipulation  |                                                 |
\*---------------------------------------------------------------------------*/
FoamFile
{
    version     2.0;
    format      ascii;
    arch        "LSB;label=32;scalar=64";
    class       volScalarField;
    location    "6.8e-06";
    object      E;
}
// * * * * * * * * * * * * * * * * * * * * * * * * * * * * * * * * * * * * * //

dimensions      [0 0 0 0 0 0 0];

internalField   nonuniform List<scalar> 
84
(
99.4401
15.83
36.4163
99.4778
15.8555
36.4422
99.4682
15.8523
36.4372
99.4682
15.8523
36.4372
99.4682
15.8523
36.4372
99.4682
15.8523
36.4372
99.4682
15.8523
36.4372
99.4682
15.8523
36.4372
99.4682
15.8523
36.4372
99.4682
15.8523
36.4372
99.4682
15.8522
36.4372
99.4685
15.8462
36.4345
67.8422
63.6004
64.3879
72.3401
67.5523
68.4097
71.8642
67.1339
67.9785
71.3908
66.7181
67.1464
63.45
70.9194
66.304
66.721
67.1677
70.4503
65.8918
66.2974
66.7422
69.9923
65.4888
65.8835
66.3264
69.5472
65.0967
65.481
65.9188
69.1353
64.7291
65.1044
65.1039
63.6711
68.5726
64.2458
64.6061
64.5987
65.0495
68.1342
63.8588
64.2088
64.1976
64.7962
67.6996
63.4756
63.8158
64.2478
)
;

boundaryField
{
    inlet
    {
        type            calculated;
        value           uniform 0;
    }
    outlet2
    {
        type            calculated;
        value           uniform 0;
    }
    outlet1
    {
        type            calculated;
        value           nonuniform List<scalar> 0();
    }
    wall
    {
        type            calculated;
        value           uniform 0;
    }
    symmetryBottom
    {
        type            symmetry;
    }
    symmetryZ0
    {
        type            symmetry;
    }
    symmetryZ05
    {
        type            symmetry;
    }
    procBoundary1to0
    {
        type            processor;
        value           uniform 0;
    }
}


// ************************************************************************* //
