/*--------------------------------*- C++ -*----------------------------------*\
| =========                 |                                                 |
| \\      /  F ield         | OpenFOAM: The Open Source CFD Toolbox           |
|  \\    /   O peration     | Version:  2412                                  |
|   \\  /    A nd           | Website:  www.openfoam.com                      |
|    \\/     M anipulation  |                                                 |
\*---------------------------------------------------------------------------*/
FoamFile
{
    version     2.0;
    format      ascii;
    arch        "LSB;label=32;scalar=64";
    class       volScalarField;
    location    "6.8e-06";
    object      rho;
}
// * * * * * * * * * * * * * * * * * * * * * * * * * * * * * * * * * * * * * //

dimensions      [0 0 0 0 0 0 0];

internalField   nonuniform List<scalar> 
84
(
2.81112e-05
4.68419e-06
1.03922e-05
2.81218e-05
4.69155e-06
1.03996e-05
2.81191e-05
4.69064e-06
1.03982e-05
2.81191e-05
4.69064e-06
1.03982e-05
2.81191e-05
4.69064e-06
1.03982e-05
2.81191e-05
4.69064e-06
1.03982e-05
2.81191e-05
4.69064e-06
1.03982e-05
2.81191e-05
4.69064e-06
1.03982e-05
2.81191e-05
4.69064e-06
1.03982e-05
2.81191e-05
4.69064e-06
1.03982e-05
2.81191e-05
4.69062e-06
1.03982e-05
2.81192e-05
4.6889e-06
1.03974e-05
1.9267e-05
1.80871e-05
1.8306e-05
2.05151e-05
1.91854e-05
1.94234e-05
2.03817e-05
1.90679e-05
1.93024e-05
2.02491e-05
1.89512e-05
1.9069e-05
1.80327e-05
2.0117e-05
1.88349e-05
1.89496e-05
1.9075e-05
1.99849e-05
1.87187e-05
1.88302e-05
1.89551e-05
1.98532e-05
1.86029e-05
1.87113e-05
1.88356e-05
1.97242e-05
1.84895e-05
1.85948e-05
1.87177e-05
1.95877e-05
1.83695e-05
1.84715e-05
1.84712e-05
1.80992e-05
1.94729e-05
1.82682e-05
1.83676e-05
1.83658e-05
1.84929e-05
1.93403e-05
1.81515e-05
1.82477e-05
1.82448e-05
1.84126e-05
1.92162e-05
1.80419e-05
1.81353e-05
1.82567e-05
)
;

boundaryField
{
    inlet
    {
        type            calculated;
        value           uniform 0;
    }
    outlet2
    {
        type            calculated;
        value           uniform 0;
    }
    outlet1
    {
        type            calculated;
        value           nonuniform List<scalar> 0();
    }
    wall
    {
        type            calculated;
        value           uniform 0;
    }
    symmetryBottom
    {
        type            symmetry;
    }
    symmetryZ0
    {
        type            symmetry;
    }
    symmetryZ05
    {
        type            symmetry;
    }
    procBoundary1to0
    {
        type            processor;
        value           uniform 0;
    }
}


// ************************************************************************* //
