/*--------------------------------*- C++ -*----------------------------------*\
| =========                 |                                                 |
| \\      /  F ield         | OpenFOAM: The Open Source CFD Toolbox           |
|  \\    /   O peration     | Version:  2412                                  |
|   \\  /    A nd           | Website:  www.openfoam.com                      |
|    \\/     M anipulation  |                                                 |
\*---------------------------------------------------------------------------*/
FoamFile
{
    version     2.0;
    format      ascii;
    arch        "LSB;label=32;scalar=64";
    class       volVectorField;
    location    "6.8e-06";
    object      rhoU;
}
// * * * * * * * * * * * * * * * * * * * * * * * * * * * * * * * * * * * * * //

dimensions      [0 0 0 0 0 0 0];

internalField   nonuniform List<vector> 
84
(
(0.0741119 -6.99895e-07 0)
(0.0120682 -6.77063e-07 0)
(0.0272664 -5.75977e-07 -1.17895e-19)
(0.07414 -0.000146052 0)
(0.0120875 -3.96217e-05 0)
(0.0272858 -6.95405e-05 -1.14763e-19)
(0.074133 -0.000145378 0)
(0.0120851 -3.94079e-05 0)
(0.0272821 -6.91934e-05 1.56906e-19)
(0.074133 -0.000145378 0)
(0.0120851 -3.94078e-05 0)
(0.0272821 -6.91933e-05 -2.13288e-19)
(0.074133 -0.000145378 0)
(0.0120851 -3.94078e-05 0)
(0.0272821 -6.91933e-05 -3.24808e-19)
(0.074133 -0.000145378 0)
(0.0120851 -3.94078e-05 0)
(0.0272821 -6.91933e-05 2.09996e-19)
(0.074133 -0.000145378 0)
(0.0120851 -3.94078e-05 0)
(0.0272821 -6.91933e-05 -2.39045e-19)
(0.074133 -0.000145378 0)
(0.0120851 -3.94078e-05 0)
(0.0272821 -6.91933e-05 -2.7173e-19)
(0.074133 -0.000145378 0)
(0.0120851 -3.94078e-05 0)
(0.0272821 -6.91933e-05 1.17069e-19)
(0.074133 -0.000145378 0)
(0.0120851 -3.94078e-05 0)
(0.0272821 -6.91933e-05 -2.39146e-19)
(0.074133 -0.000145378 0)
(0.012085 -3.94032e-05 0)
(0.027282 -6.91911e-05 -6.38791e-19)
(0.0741331 -0.000145396 0)
(0.0120805 -3.89629e-05 0)
(0.02728 -6.89904e-05 0)
(0.0506665 0.000138359 1.70136e-20)
(0.0475313 0.000121648 1.49873e-19)
(0.0481133 0.000123768 1.57494e-20)
(0.0539983 -0.000142189 1.64e-20)
(0.0504608 -0.000135081 1.62824e-19)
(0.0510941 -0.000136463 -4.92006e-21)
(0.0536451 -0.000141324 -2.2882e-20)
(0.05015 -0.000134276 -7.79914e-20)
(0.0507739 -0.000135471 -2.48222e-19)
(0.0532938 -0.000140435 2.97348e-20)
(0.0498412 -0.000133478 -4.85489e-21)
(0.0501561 -0.000136171 3.84812e-22)
(0.0474124 1.14595e-05 2.10546e-19)
(0.052944 -0.000139599 -3.20225e-20)
(0.0495336 -0.000132726 1.24461e-21)
(0.0498402 -0.000135389 -2.48409e-21)
(0.050172 -0.000136041 2.12154e-19)
(0.0525937 -0.000133621 -2.92463e-20)
(0.0492256 -0.000127516 -1.57037e-19)
(0.0495237 -0.000130065 1.31996e-20)
(0.0498541 -0.000130695 1.74414e-19)
(0.052242 -0.000104959 3.41037e-20)
(0.0489162 -0.000102211 -4.0232e-21)
(0.049206 -0.000104067 2.71053e-22)
(0.0495349 -0.000104582 -1.38044e-21)
(0.0518992 -8.76044e-05 4.13871e-20)
(0.0486145 -8.68423e-05 -1.57721e-19)
(0.0488962 -8.83052e-05 1.77641e-19)
(0.0492214 -8.8618e-05 2.76756e-21)
(0.0515358 -7.60974e-05 -1.65183e-20)
(0.0482936 -7.66498e-05 -2.11297e-19)
(0.0485667 -7.78019e-05 -2.04388e-19)
(0.0485654 -7.89486e-05 2.34228e-19)
(0.047587 1.20527e-05 1.3279e-18)
(0.051237 -7.34216e-05 3.57151e-20)
(0.0480343 -7.4284e-05 -2.17054e-19)
(0.0483 -7.53193e-05 1.74951e-19)
(0.0482952 -7.63858e-05 2.89916e-19)
(0.0486316 -7.74435e-05 2.01477e-19)
(0.0508862 -8.45096e-05 9.031e-20)
(0.0477249 -8.39828e-05 -6.96588e-21)
(0.0479824 -8.52964e-05 6.66901e-22)
(0.0479743 -8.6635e-05 -5.33566e-22)
(0.0484184 -9.50026e-05 -2.17975e-19)
(0.0505582 -0.000102674 1.70099e-22)
(0.0474356 -9.98732e-05 2.15389e-19)
(0.0476856 -0.000101603 -2.52961e-20)
(0.0480066 -0.000102051 -2.93657e-19)
)
;

boundaryField
{
    inlet
    {
        type            calculated;
        value           uniform (0 0 0);
    }
    outlet2
    {
        type            calculated;
        value           uniform (0 0 0);
    }
    outlet1
    {
        type            calculated;
        value           nonuniform List<vector> 0();
    }
    wall
    {
        type            calculated;
        value           uniform (0 0 0);
    }
    symmetryBottom
    {
        type            symmetry;
    }
    symmetryZ0
    {
        type            symmetry;
    }
    symmetryZ05
    {
        type            symmetry;
    }
    procBoundary1to0
    {
        type            processor;
        value           uniform (0 0 0);
    }
}


// ************************************************************************* //
