/*--------------------------------*- C++ -*----------------------------------*\
| =========                 |                                                 |
| \\      /  F ield         | OpenFOAM: The Open Source CFD Toolbox           |
|  \\    /   O peration     | Version:  2412                                  |
|   \\  /    A nd           | Website:  www.openfoam.com                      |
|    \\/     M anipulation  |                                                 |
\*---------------------------------------------------------------------------*/
FoamFile
{
    version     2.0;
    format      ascii;
    arch        "LSB;label=32;scalar=64";
    class       volScalarField;
    location    "9e-07";
    object      E;
}
// * * * * * * * * * * * * * * * * * * * * * * * * * * * * * * * * * * * * * //

dimensions      [0 0 0 0 0 0 0];

internalField   nonuniform List<scalar> 
84
(
99.4308
85.5624
86.0063
99.4315
85.5657
86.0095
99.4313
85.5655
86.0093
99.4313
85.5655
86.0093
99.4313
85.5655
86.0093
99.4313
85.5655
86.0093
99.4313
85.5655
86.0093
99.4313
85.5655
86.0093
99.4313
85.5655
86.0093
99.4313
85.5655
86.0093
99.4313
85.5655
86.0093
99.4314
85.5644
86.0083
93.8637
93.7569
93.8364
94.6338
94.5272
94.6072
94.5556
94.4489
94.5288
94.4773
94.3706
94.3805
93.741
94.3991
94.2924
94.3011
94.3812
94.3216
94.2148
94.2224
94.3024
94.2457
94.1389
94.1454
94.2254
94.1704
94.0636
94.069
94.1489
94.1033
93.9964
94.0008
94.0045
93.7452
94.0017
93.8949
93.8979
93.9001
93.9808
93.9297
93.8228
93.8248
93.8259
93.909
93.8533
93.7464
93.7472
93.827
)
;

boundaryField
{
    inlet
    {
        type            calculated;
        value           uniform 0;
    }
    outlet2
    {
        type            calculated;
        value           uniform 0;
    }
    outlet1
    {
        type            calculated;
        value           nonuniform List<scalar> 0();
    }
    wall
    {
        type            calculated;
        value           uniform 0;
    }
    symmetryBottom
    {
        type            symmetry;
    }
    symmetryZ0
    {
        type            symmetry;
    }
    symmetryZ05
    {
        type            symmetry;
    }
    procBoundary1to0
    {
        type            processor;
        value           uniform 0;
    }
}


// ************************************************************************* //
