/*--------------------------------*- C++ -*----------------------------------*\
| =========                 |                                                 |
| \\      /  F ield         | OpenFOAM: The Open Source CFD Toolbox           |
|  \\    /   O peration     | Version:  2412                                  |
|   \\  /    A nd           | Website:  www.openfoam.com                      |
|    \\/     M anipulation  |                                                 |
\*---------------------------------------------------------------------------*/
FoamFile
{
    version     2.0;
    format      ascii;
    arch        "LSB;label=32;scalar=64";
    class       volScalarField;
    location    "9e-07";
    object      T;
}
// * * * * * * * * * * * * * * * * * * * * * * * * * * * * * * * * * * * * * //

dimensions      [0 0 0 0 0 0 0];

internalField   nonuniform List<scalar> 
84
(
200.001
199.997
200.002
200
199.994
199.999
199.999
199.993
199.998
199.999
199.993
199.998
199.999
199.993
199.998
199.999
199.993
199.998
199.999
199.993
199.998
199.999
199.993
199.998
199.999
199.993
199.998
199.999
199.993
199.998
199.999
199.993
199.998
199.999
199.992
199.997
200.535
200.535
200.535
200.001
200
200
200.001
200
200
200.001
200
200
200.001
200.001
200
200
200
200.106
200.105
200.106
200.106
200.481
200.481
200.488
200.488
200.833
200.834
200.846
200.846
202.181
202.184
202.216
202.248
199.973
199.114
199.112
199.099
199.086
199.082
199.791
199.789
199.786
199.783
199.785
199.913
199.912
199.911
199.911
)
;

boundaryField
{
    inlet
    {
        type            calculated;
        value           uniform 0;
    }
    outlet2
    {
        type            calculated;
        value           uniform 0;
    }
    outlet1
    {
        type            calculated;
        value           nonuniform List<scalar> 0();
    }
    wall
    {
        type            calculated;
        value           uniform 0;
    }
    symmetryBottom
    {
        type            symmetry;
    }
    symmetryZ0
    {
        type            symmetry;
    }
    symmetryZ05
    {
        type            symmetry;
    }
    procBoundary1to0
    {
        type            processor;
        value           uniform 0;
    }
}


// ************************************************************************* //
