/*--------------------------------*- C++ -*----------------------------------*\
| =========                 |                                                 |
| \\      /  F ield         | OpenFOAM: The Open Source CFD Toolbox           |
|  \\    /   O peration     | Version:  2412                                  |
|   \\  /    A nd           | Website:  www.openfoam.com                      |
|    \\/     M anipulation  |                                                 |
\*---------------------------------------------------------------------------*/
FoamFile
{
    version     2.0;
    format      ascii;
    arch        "LSB;label=32;scalar=64";
    class       volScalarField;
    location    "7.1e-06";
    object      rho_dof0;
}
// * * * * * * * * * * * * * * * * * * * * * * * * * * * * * * * * * * * * * //

dimensions      [0 0 0 0 0 0 0];

internalField   nonuniform List<scalar> 
84
(
2.81114e-05
3.91485e-06
1.00473e-05
2.81228e-05
3.92222e-06
1.00549e-05
2.81199e-05
3.92132e-06
1.00534e-05
2.81199e-05
3.92132e-06
1.00534e-05
2.81199e-05
3.92132e-06
1.00534e-05
2.81199e-05
3.92132e-06
1.00534e-05
2.81199e-05
3.92132e-06
1.00534e-05
2.81199e-05
3.92132e-06
1.00534e-05
2.81199e-05
3.92132e-06
1.00534e-05
2.81199e-05
3.92132e-06
1.00534e-05
2.81199e-05
3.9213e-06
1.00534e-05
2.812e-05
3.91953e-06
1.00526e-05
1.89885e-05
1.77327e-05
1.79663e-05
2.02758e-05
1.88566e-05
1.91115e-05
2.0138e-05
1.87361e-05
1.89872e-05
2.00009e-05
1.86165e-05
1.87471e-05
1.76789e-05
1.98645e-05
1.84973e-05
1.86246e-05
1.8753e-05
1.9728e-05
1.83782e-05
1.8502e-05
1.863e-05
1.95919e-05
1.82595e-05
1.838e-05
1.85073e-05
1.94588e-05
1.81434e-05
1.82605e-05
1.83863e-05
1.93175e-05
1.80202e-05
1.81338e-05
1.81327e-05
1.77506e-05
1.91998e-05
1.7917e-05
1.80278e-05
1.80252e-05
1.8156e-05
1.90627e-05
1.77973e-05
1.79047e-05
1.7901e-05
1.80757e-05
1.89348e-05
1.76853e-05
1.77897e-05
1.79138e-05
)
;

boundaryField
{
    inlet
    {
        type            calculated;
        value           uniform 2.81085e-05;
    }
    outlet2
    {
        type            calculated;
        value           uniform 2.81085e-05;
    }
    outlet1
    {
        type            calculated;
        value           nonuniform List<scalar> 0();
    }
    wall
    {
        type            calculated;
        value           uniform 2.81085e-05;
    }
    symmetryBottom
    {
        type            symmetry;
    }
    symmetryZ0
    {
        type            symmetry;
    }
    symmetryZ05
    {
        type            symmetry;
    }
    procBoundary1to0
    {
        type            processor;
        value           uniform 2.81085e-05;
    }
}


// ************************************************************************* //
