/*--------------------------------*- C++ -*----------------------------------*\
| =========                 |                                                 |
| \\      /  F ield         | OpenFOAM: The Open Source CFD Toolbox           |
|  \\    /   O peration     | Version:  2412                                  |
|   \\  /    A nd           | Website:  www.openfoam.com                      |
|    \\/     M anipulation  |                                                 |
\*---------------------------------------------------------------------------*/
FoamFile
{
    version     2.0;
    format      ascii;
    arch        "LSB;label=32;scalar=64";
    class       volVectorField;
    location    "7.1e-06";
    object      rhoU;
}
// * * * * * * * * * * * * * * * * * * * * * * * * * * * * * * * * * * * * * //

dimensions      [0 0 0 0 0 0 0];

internalField   nonuniform List<vector> 
84
(
(0.0741125 -7.52854e-07 0)
(0.0100344 -6.82792e-07 0)
(0.0263611 -5.88625e-07 -1.15555e-19)
(0.0741426 -0.000150771 0)
(0.0100536 -3.64636e-05 0)
(0.0263811 -6.9991e-05 -1.14764e-19)
(0.074135 -0.000150049 0)
(0.0100512 -3.62556e-05 0)
(0.0263772 -6.96273e-05 1.55344e-19)
(0.074135 -0.000150049 0)
(0.0100512 -3.62555e-05 0)
(0.0263772 -6.96273e-05 -2.13303e-19)
(0.074135 -0.000150049 0)
(0.0100512 -3.62555e-05 0)
(0.0263772 -6.96273e-05 -3.25593e-19)
(0.074135 -0.000150049 0)
(0.0100512 -3.62555e-05 0)
(0.0263772 -6.96273e-05 2.09996e-19)
(0.074135 -0.000150049 0)
(0.0100512 -3.62555e-05 0)
(0.0263772 -6.96273e-05 -2.41402e-19)
(0.074135 -0.000150049 0)
(0.0100512 -3.62555e-05 0)
(0.0263772 -6.96273e-05 -2.72516e-19)
(0.074135 -0.000150049 0)
(0.0100512 -3.62555e-05 0)
(0.0263772 -6.96273e-05 1.15504e-19)
(0.074135 -0.000150049 0)
(0.0100512 -3.62555e-05 0)
(0.0263772 -6.96272e-05 -2.41513e-19)
(0.074135 -0.000150049 0)
(0.0100512 -3.62506e-05 0)
(0.0263772 -6.9625e-05 -6.41153e-19)
(0.0741352 -0.000150067 0)
(0.0100466 -3.57998e-05 0)
(0.0263752 -6.94307e-05 0)
(0.0499292 0.000142383 1.79914e-20)
(0.0465928 0.000124201 1.53534e-19)
(0.0472139 0.000126567 1.62863e-20)
(0.0533655 -0.000146731 1.73518e-20)
(0.0495904 -0.000138627 1.69059e-19)
(0.050269 -0.000140184 -5.26975e-21)
(0.0530005 -0.000145797 -2.41801e-20)
(0.0492718 -0.000137764 -8.10396e-20)
(0.0499399 -0.000139117 -2.52489e-19)
(0.0526376 -0.000144836 3.15246e-20)
(0.0489552 -0.000136909 -5.20469e-21)
(0.0493044 -0.000139779 4.2729e-22)
(0.0464767 1.23245e-05 2.09199e-19)
(0.0522762 -0.000143933 -3.24713e-20)
(0.04864 -0.000136103 1.30098e-21)
(0.0489802 -0.000138939 -2.5598e-21)
(0.04932 -0.000139636 2.12564e-19)
(0.0519143 -0.000137852 -3.10072e-20)
(0.0483243 -0.000130849 -1.61916e-19)
(0.0486554 -0.000133565 1.4437e-20)
(0.0489937 -0.000134239 1.82546e-19)
(0.0515509 -0.000108187 3.61129e-20)
(0.0480072 -0.00010486 -4.43635e-21)
(0.0483293 -0.000106828 3.79986e-22)
(0.048666 -0.000107379 -1.42955e-21)
(0.0511972 -9.03071e-05 4.36914e-20)
(0.0476983 -8.91415e-05 -1.64617e-19)
(0.0480117 -9.06874e-05 1.84165e-19)
(0.0483444 -9.10219e-05 2.94076e-21)
(0.0508209 -7.82746e-05 -1.74786e-20)
(0.0473686 -7.8565e-05 -2.13161e-19)
(0.0476727 -7.97725e-05 -2.04359e-19)
(0.0476693 -8.0948e-05 2.38254e-19)
(0.0466645 1.29535e-05 1.35419e-18)
(0.0505147 -7.534e-05 3.777e-20)
(0.0471051 -7.59936e-05 -2.18019e-19)
(0.0474013 -7.70707e-05 1.82084e-19)
(0.0473942 -7.81598e-05 2.93558e-19)
(0.0477404 -7.93054e-05 2.05561e-19)
(0.050152 -8.68261e-05 9.57046e-20)
(0.0467879 -8.59566e-05 -7.76579e-21)
(0.0470751 -8.73352e-05 7.38822e-22)
(0.0470649 -8.87099e-05 -5.77885e-22)
(0.0475272 -9.77237e-05 -2.16629e-19)
(0.0498143 -0.000105507 1.75074e-22)
(0.0464922 -0.000102166 2.14656e-19)
(0.0467714 -0.000103992 -2.71524e-20)
(0.0470997 -0.00010447 -2.97684e-19)
)
;

boundaryField
{
    inlet
    {
        type            calculated;
        value           uniform (0 0 0);
    }
    outlet2
    {
        type            calculated;
        value           uniform (0 0 0);
    }
    outlet1
    {
        type            calculated;
        value           nonuniform List<vector> 0();
    }
    wall
    {
        type            calculated;
        value           uniform (0 0 0);
    }
    symmetryBottom
    {
        type            symmetry;
    }
    symmetryZ0
    {
        type            symmetry;
    }
    symmetryZ05
    {
        type            symmetry;
    }
    procBoundary1to0
    {
        type            processor;
        value           uniform (0 0 0);
    }
}


// ************************************************************************* //
