/*--------------------------------*- C++ -*----------------------------------*\
| =========                 |                                                 |
| \\      /  F ield         | OpenFOAM: The Open Source CFD Toolbox           |
|  \\    /   O peration     | Version:  2412                                  |
|   \\  /    A nd           | Website:  www.openfoam.com                      |
|    \\/     M anipulation  |                                                 |
\*---------------------------------------------------------------------------*/
FoamFile
{
    version     2.0;
    format      ascii;
    arch        "LSB;label=32;scalar=64";
    class       volVectorField;
    location    "7.1e-06";
    object      U;
}
// * * * * * * * * * * * * * * * * * * * * * * * * * * * * * * * * * * * * * //

dimensions      [0 0 0 0 0 0 0];

internalField   nonuniform List<vector> 
84
(
(2636.39 -0.0267811 0)
(2563.16 -0.174411 0)
(2623.71 -0.0585856 -1.15012e-14)
(2636.39 -5.36118 0)
(2563.24 -9.29666 0)
(2623.71 -6.9609 -1.14138e-14)
(2636.39 -5.33603 0)
(2563.23 -9.24576 0)
(2623.71 -6.92575 1.54519e-14)
(2636.39 -5.33603 0)
(2563.23 -9.24575 0)
(2623.71 -6.92575 -2.1217e-14)
(2636.39 -5.33603 0)
(2563.23 -9.24575 0)
(2623.71 -6.92575 -3.23864e-14)
(2636.39 -5.33603 0)
(2563.23 -9.24575 0)
(2623.71 -6.92575 2.08881e-14)
(2636.39 -5.33603 0)
(2563.23 -9.24575 0)
(2623.71 -6.92575 -2.4012e-14)
(2636.39 -5.33603 0)
(2563.23 -9.24575 0)
(2623.71 -6.92575 -2.71069e-14)
(2636.39 -5.33603 0)
(2563.23 -9.24575 0)
(2623.71 -6.92575 1.14891e-14)
(2636.39 -5.33603 0)
(2563.23 -9.24574 0)
(2623.71 -6.92575 -2.4023e-14)
(2636.39 -5.33603 0)
(2563.23 -9.24454 0)
(2623.71 -6.92553 -6.37748e-14)
(2636.39 -5.33666 0)
(2563.21 -9.1337 0)
(2623.71 -6.90672 0)
(2629.45 7.49837 9.47491e-16)
(2627.51 7.00406 8.65823e-15)
(2627.92 7.04469 9.06491e-16)
(2631.98 -7.23674 8.55791e-16)
(2629.87 -7.35164 8.9655e-15)
(2630.29 -7.33503 -2.75737e-16)
(2631.87 -7.23991 -1.20072e-15)
(2629.77 -7.35283 -4.32531e-15)
(2630.19 -7.3269 -1.32978e-14)
(2631.76 -7.24147 1.57616e-15)
(2629.67 -7.35417 -2.79575e-16)
(2629.98 -7.456 2.27923e-17)
(2628.93 0.697131 1.18333e-14)
(2631.64 -7.24576 -1.63464e-15)
(2629.57 -7.35799 7.03333e-17)
(2629.87 -7.46 -1.37442e-16)
(2629.98 -7.44605 1.13349e-14)
(2631.5 -6.98764 -1.57173e-15)
(2629.43 -7.11979 -8.81018e-15)
(2629.73 -7.21893 7.80292e-16)
(2629.83 -7.20554 9.79852e-15)
(2631.23 -5.52204 1.84326e-15)
(2629.16 -5.74277 -2.42961e-16)
(2629.46 -5.81218 2.06739e-17)
(2629.56 -5.80197 -7.72428e-17)
(2631.05 -4.64094 2.24533e-15)
(2628.96 -4.91316 -9.07313e-15)
(2629.26 -4.96631 1.00854e-14)
(2629.37 -4.95052 1.59942e-16)
(2630.83 -4.05201 -9.04808e-16)
(2628.64 -4.35982 -1.1829e-14)
(2628.95 -4.39911 -1.12695e-14)
(2628.92 -4.46421 1.31395e-14)
(2628.9 0.729753 7.62901e-14)
(2631.01 -3.92401 1.96721e-15)
(2629.07 -4.24143 -1.21683e-14)
(2629.35 -4.2751 1.01002e-14)
(2629.33 -4.33614 1.6286e-14)
(2629.46 -4.36801 1.13219e-14)
(2630.9 -4.55477 5.02052e-15)
(2628.93 -4.82975 -4.36346e-16)
(2629.2 -4.87777 4.12641e-17)
(2629.18 -4.9556 -3.22823e-17)
(2629.34 -5.40636 -1.19846e-14)
(2630.83 -5.57211 9.24614e-18)
(2628.85 -5.77687 1.21375e-14)
(2629.13 -5.84562 -1.5263e-15)
(2629.24 -5.83181 -1.66175e-14)
)
;

boundaryField
{
    inlet
    {
        type            calculated;
        value           uniform (0 0 0);
    }
    outlet2
    {
        type            calculated;
        value           uniform (0 0 0);
    }
    outlet1
    {
        type            calculated;
        value           nonuniform List<vector> 0();
    }
    wall
    {
        type            calculated;
        value           uniform (0 0 0);
    }
    symmetryBottom
    {
        type            symmetry;
    }
    symmetryZ0
    {
        type            symmetry;
    }
    symmetryZ05
    {
        type            symmetry;
    }
    procBoundary1to0
    {
        type            processor;
        value           uniform (0 0 0);
    }
}


// ************************************************************************* //
