/*--------------------------------*- C++ -*----------------------------------*\
| =========                 |                                                 |
| \\      /  F ield         | OpenFOAM: The Open Source CFD Toolbox           |
|  \\    /   O peration     | Version:  2412                                  |
|   \\  /    A nd           | Website:  www.openfoam.com                      |
|    \\/     M anipulation  |                                                 |
\*---------------------------------------------------------------------------*/
FoamFile
{
    version     2.0;
    format      ascii;
    arch        "LSB;label=32;scalar=64";
    class       volScalarField;
    location    "5.5e-06";
    object      E;
}
// * * * * * * * * * * * * * * * * * * * * * * * * * * * * * * * * * * * * * //

dimensions      [0 0 0 0 0 0 0];

internalField   nonuniform List<scalar> 
84
(
97.3955
66.9564
69.6975
69.5387
69.5492
69.5525
69.5563
69.9898
102.423
70.4978
73.4284
73.3188
73.3883
73.4521
73.5183
73.9702
101.501
70.5023
72.9937
72.9238
72.984
73.0413
73.1006
73.5507
101.114
69.8148
72.6933
72.5747
72.633
72.6853
73.1335
100.916
69.4202
72.2992
72.1742
72.226
72.2716
72.7179
100.389
69.0475
71.9062
71.7757
71.821
71.8599
72.3044
99.8714
68.6849
71.5218
71.3863
71.4252
71.4576
71.9002
99.1584
68.5384
71.1237
71.0079
71.0392
71.0654
71.5063
98.7418
68.0281
70.8181
70.6735
70.7011
71.1401
98.2795
67.5632
70.3404
70.1892
70.2094
70.646
97.6811
67.2207
69.966
69.8103
69.8242
70.259
96.7025
66.971
69.5808
69.4313
69.4385
69.4392
69.8725
)
;

boundaryField
{
    inlet
    {
        type            calculated;
        value           nonuniform List<scalar> 0();
    }
    outlet2
    {
        type            calculated;
        value           uniform 0;
    }
    outlet1
    {
        type            calculated;
        value           uniform 0;
    }
    wall
    {
        type            calculated;
        value           uniform 0;
    }
    symmetryBottom
    {
        type            symmetry;
    }
    symmetryZ0
    {
        type            symmetry;
    }
    symmetryZ05
    {
        type            symmetry;
    }
    procBoundary0to1
    {
        type            processor;
        value           uniform 0;
    }
}


// ************************************************************************* //
