/*--------------------------------*- C++ -*----------------------------------*\
| =========                 |                                                 |
| \\      /  F ield         | OpenFOAM: The Open Source CFD Toolbox           |
|  \\    /   O peration     | Version:  2412                                  |
|   \\  /    A nd           | Website:  www.openfoam.com                      |
|    \\/     M anipulation  |                                                 |
\*---------------------------------------------------------------------------*/
FoamFile
{
    version     2.0;
    format      ascii;
    arch        "LSB;label=32;scalar=64";
    class       volVectorField;
    location    "5.5e-06";
    object      U;
}
// * * * * * * * * * * * * * * * * * * * * * * * * * * * * * * * * * * * * * //

dimensions      [0 0 0 0 0 0 0];

internalField   nonuniform List<vector> 
84
(
(2634.65 5.65601 5.65009e-15)
(2628.4 5.76189 -8.12274e-15)
(2629.76 5.83973 -1.40467e-14)
(2629.63 5.92495 8.60549e-15)
(2629.62 6.0123 -1.03348e-15)
(2629.6 6.10228 1.05486e-15)
(2629.58 6.19498 1.33255e-14)
(2629.69 6.18616 1.92509e-15)
(2636.49 -5.78194 5.49941e-15)
(2630.34 -5.96845 -7.64881e-15)
(2631.71 -6.02811 -1.70915e-14)
(2631.61 -6.12143 1.90845e-15)
(2631.63 -6.21479 -3.22125e-14)
(2631.64 -6.31121 7.06403e-15)
(2631.65 -6.41066 2.57861e-14)
(2631.76 -6.40019 5.21432e-15)
(2636.31 -5.28639 -2.25554e-14)
(2630.44 -6.60388 6.08608e-15)
(2631.59 -5.96166 1.01014e-14)
(2631.52 -6.12687 -1.04483e-15)
(2631.54 -6.21582 -4.19206e-16)
(2631.55 -6.31247 1.26921e-14)
(2631.56 -6.41196 -1.10807e-14)
(2631.67 -6.40148 -1.21081e-14)
(2636.25 -5.48697 -2.19054e-14)
(2630.19 -6.08228 1.48296e-14)
(2631.55 -6.12098 -1.44742e-15)
(2631.45 -6.21739 -2.92038e-14)
(2631.46 -6.31375 2.86826e-14)
(2631.47 -6.41329 4.93499e-15)
(2631.58 -6.4028 -1.11211e-14)
(2636.26 -5.87876 -1.38727e-14)
(2630.09 -6.05206 -5.27026e-15)
(2631.46 -6.1253 5.17365e-16)
(2631.36 -6.22038 1.58397e-16)
(2631.38 -6.31689 -1.05864e-14)
(2631.39 -6.41652 8.40167e-15)
(2631.49 -6.40602 1.81068e-14)
(2636.15 -5.67187 -8.36667e-15)
(2629.97 -5.8299 1.61819e-14)
(2631.35 -5.90416 -1.53546e-15)
(2631.24 -5.99744 1.86454e-14)
(2631.26 -6.09236 -1.70738e-14)
(2631.26 -6.1904 1.44782e-14)
(2631.37 -6.1803 -3.13614e-14)
(2635.98 -4.56675 -2.88227e-18)
(2629.75 -4.70059 1.53703e-14)
(2631.13 -4.75508 -1.49516e-15)
(2631.02 -4.83069 3.41267e-17)
(2631.04 -4.90699 1.54901e-14)
(2631.04 -4.98584 2.07907e-15)
(2631.15 -4.97777 1.52792e-14)
(2635.82 -3.44853 1.89202e-16)
(2629.68 -4.5302 1.98905e-16)
(2630.97 -3.9947 -7.88148e-17)
(2630.87 -4.11973 -1.9895e-16)
(2630.88 -4.18185 -4.15809e-17)
(2630.88 -4.25007 8.99923e-17)
(2630.99 -4.24313 -1.27937e-14)
(2635.67 -3.28913 3.0174e-14)
(2629.38 -3.63568 -3.82323e-15)
(2630.77 -3.66389 -3.2754e-14)
(2630.65 -3.72261 -1.05815e-14)
(2630.66 -3.78173 1.79276e-14)
(2630.77 -3.77576 -1.84954e-15)
(2635.76 -3.45651 -1.07725e-14)
(2629.66 -3.54051 1.37731e-15)
(2631.01 -3.58631 -1.51857e-14)
(2630.9 -3.64099 1.6841e-14)
(2630.91 -3.69676 2.80667e-14)
(2631.01 -3.69116 -2.86583e-15)
(2635.71 -3.67894 -1.52986e-14)
(2629.55 -4.065 1.89399e-15)
(2630.91 -4.07423 -6.97517e-17)
(2630.8 -4.14014 2.96638e-14)
(2630.8 -4.2046 3.06351e-14)
(2630.91 -4.19811 1.23467e-15)
(2635.61 -0.504403 -1.03236e-15)
(2629.51 -5.45695 9.17185e-17)
(2630.85 -4.76483 -3.86303e-18)
(2630.74 -4.89121 1.80774e-14)
(2630.75 -4.9634 -1.81277e-15)
(2630.74 -5.0408 1.11641e-16)
(2630.85 -5.03318 -1.51805e-14)
)
;

boundaryField
{
    inlet
    {
        type            calculated;
        value           nonuniform List<vector> 0();
    }
    outlet2
    {
        type            calculated;
        value           uniform (0 0 0);
    }
    outlet1
    {
        type            calculated;
        value           uniform (0 0 0);
    }
    wall
    {
        type            calculated;
        value           uniform (0 0 0);
    }
    symmetryBottom
    {
        type            symmetry;
    }
    symmetryZ0
    {
        type            symmetry;
    }
    symmetryZ05
    {
        type            symmetry;
    }
    procBoundary0to1
    {
        type            processor;
        value           uniform (0 0 0);
    }
}


// ************************************************************************* //
