/*--------------------------------*- C++ -*----------------------------------*\
| =========                 |                                                 |
| \\      /  F ield         | OpenFOAM: The Open Source CFD Toolbox           |
|  \\    /   O peration     | Version:  2412                                  |
|   \\  /    A nd           | Website:  www.openfoam.com                      |
|    \\/     M anipulation  |                                                 |
\*---------------------------------------------------------------------------*/
FoamFile
{
    version     2.0;
    format      ascii;
    arch        "LSB;label=32;scalar=64";
    class       volScalarField;
    location    "9e-07";
    object      T;
}
// * * * * * * * * * * * * * * * * * * * * * * * * * * * * * * * * * * * * * //

dimensions      [0 0 0 0 0 0 0];

internalField   nonuniform List<scalar> 
84
(
200.547
200.558
200.567
200.576
200.585
200.594
200.603
200.603
200
199.999
200
200
200
200
200
200
199.999
199.999
200
200
200
200
200
200
200
199.999
200
200
200
200
200
200
200
200
200
200
200
200
200.107
200.11
200.113
200.114
200.116
200.118
200.118
200.495
200.509
200.517
200.525
200.533
200.542
200.541
200.855
200.884
200.897
200.911
200.925
200.94
200.939
202.255
202.351
202.387
202.425
202.463
202.462
199.068
199.043
199.03
199.014
198.999
198.999
199.776
199.772
199.77
199.766
199.762
199.762
199.996
199.905
199.905
199.904
199.902
199.901
199.901
)
;

boundaryField
{
    inlet
    {
        type            calculated;
        value           nonuniform List<scalar> 0();
    }
    outlet2
    {
        type            calculated;
        value           uniform 0;
    }
    outlet1
    {
        type            calculated;
        value           uniform 0;
    }
    wall
    {
        type            calculated;
        value           uniform 0;
    }
    symmetryBottom
    {
        type            symmetry;
    }
    symmetryZ0
    {
        type            symmetry;
    }
    symmetryZ05
    {
        type            symmetry;
    }
    procBoundary0to1
    {
        type            processor;
        value           uniform 0;
    }
}


// ************************************************************************* //
