/*--------------------------------*- C++ -*----------------------------------*\
| =========                 |                                                 |
| \\      /  F ield         | OpenFOAM: The Open Source CFD Toolbox           |
|  \\    /   O peration     | Version:  2412                                  |
|   \\  /    A nd           | Website:  www.openfoam.com                      |
|    \\/     M anipulation  |                                                 |
\*---------------------------------------------------------------------------*/
FoamFile
{
    version     2.0;
    format      ascii;
    arch        "LSB;label=32;scalar=64";
    class       volVectorField;
    location    "9e-07";
    object      U;
}
// * * * * * * * * * * * * * * * * * * * * * * * * * * * * * * * * * * * * * //

dimensions      [0 0 0 0 0 0 0];

internalField   nonuniform List<vector> 
84
(
(2636.21 0.954516 1.07192e-15)
(2635.26 0.972169 -1.13268e-15)
(2635.29 0.986438 -2.63371e-15)
(2635.28 1.00125 1.21687e-15)
(2635.28 1.01651 8.64285e-18)
(2635.28 1.03224 1.39809e-16)
(2635.28 1.04847 2.38985e-15)
(2635.29 1.0482 4.84249e-16)
(2636.51 -0.948889 9.48775e-16)
(2635.58 -0.97248 -9.70776e-16)
(2635.6 -0.986631 -3.19592e-15)
(2635.61 -1.00148 7.52475e-17)
(2635.61 -1.01678 -5.35168e-15)
(2635.61 -1.03256 5.90542e-16)
(2635.61 -1.04883 4.48966e-15)
(2635.63 -1.04845 1.17129e-15)
(2636.49 -0.934856 -4.51698e-15)
(2635.57 -0.982871 7.13049e-16)
(2635.59 -0.986676 1.58204e-15)
(2635.59 -1.00167 -3.82222e-17)
(2635.59 -1.01697 -2.37147e-17)
(2635.6 -1.03275 2.18839e-15)
(2635.6 -1.04903 -1.69886e-15)
(2635.61 -1.04866 -2.24383e-15)
(2636.48 -0.951333 -4.56393e-15)
(2635.55 -0.987341 2.21864e-15)
(2635.58 -1.00185 -4.55094e-17)
(2635.58 -1.01716 -5.03859e-15)
(2635.58 -1.03295 4.52001e-15)
(2635.58 -1.04924 1.10423e-15)
(2635.6 -1.04886 -1.66899e-15)
(2636.47 -0.963313 -2.51438e-15)
(2635.54 -0.987423 -1.05684e-15)
(2635.56 -1.00203 1.43157e-17)
(2635.57 -1.01735 3.47465e-18)
(2635.57 -1.03315 -1.54435e-15)
(2635.57 -1.04944 1.27635e-15)
(2635.58 -1.04907 3.36288e-15)
(2636.45 -0.914965 -1.56476e-15)
(2635.52 -0.937433 2.69811e-15)
(2635.55 -0.951347 -3.52424e-17)
(2635.55 -0.965929 3.28205e-15)
(2635.55 -0.980963 -2.83567e-15)
(2635.55 -0.996471 2.33132e-15)
(2635.56 -0.996124 -5.24719e-15)
(2636.43 -0.738516 -1.02345e-19)
(2635.49 -0.756032 2.6673e-15)
(2635.52 -0.767265 -3.4622e-17)
(2635.52 -0.779027 -8.29486e-18)
(2635.52 -0.791153 2.80544e-15)
(2635.52 -0.803663 4.45273e-16)
(2635.53 -0.803393 2.93831e-15)
(2636.41 -0.6116 2.39667e-20)
(2635.47 -0.645621 9.7138e-19)
(2635.5 -0.646896 -8.45966e-18)
(2635.5 -0.656938 -5.71141e-18)
(2635.5 -0.66718 1.076e-18)
(2635.5 -0.677747 -8.31287e-19)
(2635.51 -0.67753 -2.16479e-15)
(2636.39 -0.568861 5.28212e-15)
(2635.45 -0.588283 -7.31555e-17)
(2635.48 -0.597138 -5.41127e-15)
(2635.48 -0.606433 -2.23449e-15)
(2635.48 -0.61602 2.76967e-15)
(2635.5 -0.615833 -1.53238e-18)
(2636.39 -0.579238 -1.97714e-15)
(2635.45 -0.591484 2.90227e-17)
(2635.48 -0.600402 -2.71172e-15)
(2635.48 -0.609696 2.73396e-15)
(2635.48 -0.619282 5.11274e-15)
(2635.49 -0.6191 2.28135e-19)
(2636.38 -0.644113 -2.59621e-15)
(2635.45 -0.663503 3.61928e-17)
(2635.47 -0.673449 1.00416e-18)
(2635.47 -0.683898 5.01435e-15)
(2635.47 -0.694675 5.5222e-15)
(2635.49 -0.694471 6.65125e-16)
(2636.36 -0.014944 -3.16962e-17)
(2635.44 -0.799909 2.58455e-19)
(2635.46 -0.796923 -1.28414e-21)
(2635.46 -0.809245 3.2971e-15)
(2635.46 -0.821798 -4.46873e-17)
(2635.46 -0.834748 3.50709e-19)
(2635.48 -0.834523 -2.77508e-15)
)
;

boundaryField
{
    inlet
    {
        type            calculated;
        value           nonuniform List<vector> 0();
    }
    outlet2
    {
        type            calculated;
        value           uniform (0 0 0);
    }
    outlet1
    {
        type            calculated;
        value           uniform (0 0 0);
    }
    wall
    {
        type            calculated;
        value           uniform (0 0 0);
    }
    symmetryBottom
    {
        type            symmetry;
    }
    symmetryZ0
    {
        type            symmetry;
    }
    symmetryZ05
    {
        type            symmetry;
    }
    procBoundary0to1
    {
        type            processor;
        value           uniform (0 0 0);
    }
}


// ************************************************************************* //
