/*--------------------------------*- C++ -*----------------------------------*\
| =========                 |                                                 |
| \\      /  F ield         | OpenFOAM: The Open Source CFD Toolbox           |
|  \\    /   O peration     | Version:  2412                                  |
|   \\  /    A nd           | Website:  www.openfoam.com                      |
|    \\/     M anipulation  |                                                 |
\*---------------------------------------------------------------------------*/
FoamFile
{
    version     2.0;
    format      ascii;
    arch        "LSB;label=32;scalar=64";
    class       volScalarField;
    location    "1.4e-06";
    object      E;
}
// * * * * * * * * * * * * * * * * * * * * * * * * * * * * * * * * * * * * * //

dimensions      [0 0 0 0 0 0 0];

internalField   nonuniform List<scalar> 
84
(
99.431
78.2827
79.3751
99.433
78.2885
79.3805
99.4325
78.2881
79.38
99.4325
78.2881
79.38
99.4325
78.2881
79.38
99.4325
78.2881
79.38
99.4325
78.2881
79.38
99.4325
78.2881
79.38
99.4325
78.2881
79.38
99.4325
78.2881
79.38
99.4325
78.2881
79.38
99.4326
78.2863
79.3785
91.0071
90.747
90.87
92.1777
91.9075
92.0318
92.0583
91.7891
91.9131
91.939
91.6708
91.6882
90.7162
91.8199
91.5527
91.5683
91.6901
91.7016
91.4354
91.4493
91.571
91.5859
91.3207
91.3329
91.4545
91.4714
91.2071
91.2176
91.339
91.369
91.1053
91.1144
91.1199
90.727
91.2152
90.9533
90.9602
90.9635
91.0859
91.1054
90.8443
90.8496
90.8514
90.9802
90.9895
90.7294
90.733
90.854
)
;

boundaryField
{
    inlet
    {
        type            calculated;
        value           uniform 0;
    }
    outlet2
    {
        type            calculated;
        value           uniform 0;
    }
    outlet1
    {
        type            calculated;
        value           nonuniform List<scalar> 0();
    }
    wall
    {
        type            calculated;
        value           uniform 0;
    }
    symmetryBottom
    {
        type            symmetry;
    }
    symmetryZ0
    {
        type            symmetry;
    }
    symmetryZ05
    {
        type            symmetry;
    }
    procBoundary1to0
    {
        type            processor;
        value           uniform 0;
    }
}


// ************************************************************************* //
