/*--------------------------------*- C++ -*----------------------------------*\
| =========                 |                                                 |
| \\      /  F ield         | OpenFOAM: The Open Source CFD Toolbox           |
|  \\    /   O peration     | Version:  2412                                  |
|   \\  /    A nd           | Website:  www.openfoam.com                      |
|    \\/     M anipulation  |                                                 |
\*---------------------------------------------------------------------------*/
FoamFile
{
    version     2.0;
    format      ascii;
    arch        "LSB;label=32;scalar=64";
    class       volScalarField;
    location    "1.4e-06";
    object      rho_dof0;
}
// * * * * * * * * * * * * * * * * * * * * * * * * * * * * * * * * * * * * * //

dimensions      [0 0 0 0 0 0 0];

internalField   nonuniform List<scalar> 
84
(
2.81086e-05
2.21961e-05
2.24981e-05
2.81092e-05
2.21978e-05
2.24996e-05
2.8109e-05
2.21977e-05
2.24995e-05
2.8109e-05
2.21977e-05
2.24995e-05
2.8109e-05
2.21977e-05
2.24995e-05
2.8109e-05
2.21977e-05
2.24995e-05
2.8109e-05
2.21977e-05
2.24995e-05
2.8109e-05
2.21977e-05
2.24995e-05
2.8109e-05
2.21977e-05
2.24995e-05
2.8109e-05
2.21977e-05
2.24995e-05
2.8109e-05
2.21977e-05
2.24995e-05
2.81091e-05
2.21972e-05
2.24991e-05
2.57562e-05
2.56843e-05
2.57187e-05
2.60803e-05
2.60056e-05
2.60404e-05
2.60469e-05
2.59725e-05
2.60072e-05
2.60136e-05
2.59394e-05
2.59443e-05
2.56725e-05
2.59802e-05
2.59064e-05
2.59107e-05
2.59448e-05
2.5947e-05
2.58734e-05
2.58773e-05
2.59113e-05
2.59137e-05
2.58404e-05
2.58438e-05
2.58778e-05
2.58806e-05
2.58076e-05
2.58105e-05
2.58444e-05
2.58472e-05
2.57745e-05
2.57769e-05
2.57783e-05
2.56758e-05
2.58148e-05
2.57423e-05
2.57442e-05
2.57452e-05
2.57795e-05
2.57815e-05
2.57093e-05
2.57108e-05
2.57113e-05
2.57473e-05
2.57485e-05
2.56765e-05
2.56775e-05
2.57114e-05
)
;

boundaryField
{
    inlet
    {
        type            calculated;
        value           uniform 2.81085e-05;
    }
    outlet2
    {
        type            calculated;
        value           uniform 2.81085e-05;
    }
    outlet1
    {
        type            calculated;
        value           nonuniform List<scalar> 0();
    }
    wall
    {
        type            calculated;
        value           uniform 2.81085e-05;
    }
    symmetryBottom
    {
        type            symmetry;
    }
    symmetryZ0
    {
        type            symmetry;
    }
    symmetryZ05
    {
        type            symmetry;
    }
    procBoundary1to0
    {
        type            processor;
        value           uniform 2.81085e-05;
    }
}


// ************************************************************************* //
