/*--------------------------------*- C++ -*----------------------------------*\
| =========                 |                                                 |
| \\      /  F ield         | OpenFOAM: The Open Source CFD Toolbox           |
|  \\    /   O peration     | Version:  2412                                  |
|   \\  /    A nd           | Website:  www.openfoam.com                      |
|    \\/     M anipulation  |                                                 |
\*---------------------------------------------------------------------------*/
FoamFile
{
    version     2.0;
    format      ascii;
    arch        "LSB;label=32;scalar=64";
    class       volScalarField;
    location    "8.8e-06";
    object      E_dof0;
}
// * * * * * * * * * * * * * * * * * * * * * * * * * * * * * * * * * * * * * //

dimensions      [0 0 0 0 0 0 0];

internalField   nonuniform List<scalar> 
84
(
101.954
53.6883
57.1044
56.9601
56.983
57.0028
56.9741
57.6366
108.803
57.3838
61.0822
60.9897
61.0769
61.1627
61.205
61.9024
107.429
57.4396
60.587
60.5347
60.6131
60.6922
60.7274
61.4207
106.303
56.6042
60.1751
60.075
60.1513
60.1767
60.8656
106.353
56.0544
59.6571
59.5466
59.6142
59.6301
60.3146
105.477
55.5743
59.1404
59.0229
59.0818
59.0884
59.7685
104.594
55.1008
58.6279
58.5038
58.5541
58.5516
59.2273
103.456
54.8433
58.1005
57.9901
58.0311
58.0197
58.691
102.482
54.2118
57.6403
57.507
57.4926
58.1594
102.034
53.7116
57.1346
56.9932
56.9702
57.6327
101.115
53.25
56.6316
56.484
56.4524
57.1106
99.387
52.9038
56.1234
55.9757
55.9852
55.9395
56.5936
)
;

boundaryField
{
    inlet
    {
        type            calculated;
        value           nonuniform List<scalar> 0();
    }
    outlet2
    {
        type            calculated;
        value           uniform 99.4306;
    }
    outlet1
    {
        type            calculated;
        value           uniform 99.4306;
    }
    wall
    {
        type            calculated;
        value           uniform 99.4306;
    }
    symmetryBottom
    {
        type            symmetry;
    }
    symmetryZ0
    {
        type            symmetry;
    }
    symmetryZ05
    {
        type            symmetry;
    }
    procBoundary0to1
    {
        type            processor;
        value           uniform 99.4306;
    }
}


// ************************************************************************* //
