/*--------------------------------*- C++ -*----------------------------------*\
| =========                 |                                                 |
| \\      /  F ield         | OpenFOAM: The Open Source CFD Toolbox           |
|  \\    /   O peration     | Version:  2412                                  |
|   \\  /    A nd           | Website:  www.openfoam.com                      |
|    \\/     M anipulation  |                                                 |
\*---------------------------------------------------------------------------*/
FoamFile
{
    version     2.0;
    format      ascii;
    arch        "LSB;label=32;scalar=64";
    class       volVectorField;
    location    "8.8e-06";
    object      rhoU;
}
// * * * * * * * * * * * * * * * * * * * * * * * * * * * * * * * * * * * * * //

dimensions      [0 0 0 0 0 0 0];

internalField   nonuniform List<vector> 
84
(
(0.0759631 -4.56906e-06 3.10393e-19)
(0.040169 -2.86583e-06 -1.71285e-19)
(0.0426884 -3.049e-06 -4.78943e-19)
(0.0425826 -3.13651e-06 2.41149e-19)
(0.0425995 -3.23155e-06 -2.30085e-20)
(0.0426141 -3.33066e-06 -1.51994e-20)
(0.0425929 -3.44236e-06 4.28371e-19)
(0.0430847 -3.45337e-06 4.65511e-20)
(0.0810484 -0.000279852 3.0012e-19)
(0.0429224 -0.000153349 -1.68541e-19)
(0.0456502 -0.000164639 -5.97639e-19)
(0.045583 -0.000166886 1.27651e-19)
(0.0456478 -0.000169629 -1.04595e-18)
(0.0457115 -0.000172443 1.31844e-19)
(0.0457431 -0.000175484 8.37654e-19)
(0.0462607 -0.000176876 1.53279e-19)
(0.0800329 -0.00026024 -1.36434e-18)
(0.0429607 -0.000171968 1.53111e-19)
(0.0452824 -0.000164835 2.91738e-19)
(0.0452448 -0.000168727 -2.12474e-20)
(0.0453029 -0.000171445 -5.52328e-20)
(0.0453617 -0.000174321 4.51486e-19)
(0.0453881 -0.000177427 -3.06863e-19)
(0.0459026 -0.000178829 -3.82427e-19)
(0.0791999 -0.000250974 -1.34946e-18)
(0.0423418 -0.000158266 4.8141e-19)
(0.044976 -0.000167584 3.17935e-20)
(0.0449032 -0.000170013 -9.76498e-19)
(0.0449597 -0.000172852 8.86059e-19)
(0.0449789 -0.000175907 1.57602e-19)
(0.0454901 -0.000177301 -2.96536e-19)
(0.0792338 -0.000282271 -7.1903e-19)
(0.0419337 -0.000154651 -1.42769e-19)
(0.044591 -0.00016628 1.11641e-20)
(0.0445105 -0.000168557 1.77019e-20)
(0.0445606 -0.000171353 -3.11707e-19)
(0.0445727 -0.000174355 1.91137e-19)
(0.0450807 -0.000175741 5.68605e-19)
(0.0785843 -0.000280555 -4.67776e-19)
(0.0415766 -0.000153327 5.16608e-19)
(0.044207 -0.000164883 -8.27921e-20)
(0.0441213 -0.000167117 6.463e-19)
(0.044165 -0.000169866 -5.91385e-19)
(0.0441701 -0.000172816 5.23035e-19)
(0.0446749 -0.000174196 -9.09304e-19)
(0.0779304 -0.000278152 -4.1389e-20)
(0.0412243 -0.000152157 4.83992e-19)
(0.0438261 -0.000163485 -3.49762e-20)
(0.0437355 -0.000165689 -3.18855e-20)
(0.0437728 -0.000168392 5.07467e-19)
(0.0437712 -0.000171291 3.16003e-20)
(0.0442727 -0.000172663 4.76512e-19)
(0.0770887 -0.000256352 6.32252e-21)
(0.0410314 -0.000167325 7.15976e-21)
(0.0434344 -0.000160639 -1.68683e-21)
(0.0433537 -0.000164349 -6.15149e-21)
(0.043384 -0.000166928 1.89748e-21)
(0.0433758 -0.000169779 2.89156e-20)
(0.0438741 -0.000171144 -3.81436e-19)
(0.0763669 -0.000244963 1.614e-18)
(0.0405628 -0.000154127 -3.38852e-20)
(0.0430921 -0.000163179 -9.59378e-19)
(0.0429946 -0.000165471 -3.57098e-19)
(0.042984 -0.000168281 5.42517e-19)
(0.043479 -0.000169638 -2.76861e-20)
(0.0760334 -0.000275412 -5.5852e-19)
(0.040191 -0.00015059 7.39083e-20)
(0.0427162 -0.000161888 -5.36287e-19)
(0.0426126 -0.000164031 4.7694e-19)
(0.0425957 -0.000166796 8.78008e-19)
(0.0430875 -0.000168145 -7.8244e-20)
(0.0753528 -0.000257498 -7.46125e-19)
(0.0398476 -0.000150733 5.08803e-20)
(0.0423424 -0.000160431 -6.44013e-20)
(0.0422341 -0.00016261 8.24423e-19)
(0.0422108 -0.000165323 9.39196e-19)
(0.0426994 -0.000166665 1.99993e-20)
(0.0740727 -1.4818e-05 -3.71143e-20)
(0.0395892 -0.000178014 2.833e-21)
(0.0419646 -0.000154432 -4.18931e-20)
(0.0418563 -0.000158746 5.83705e-19)
(0.0418632 -0.000161124 -4.42649e-20)
(0.0418295 -0.000163781 3.82836e-20)
(0.0423151 -0.000165122 -4.81074e-19)
)
;

boundaryField
{
    inlet
    {
        type            calculated;
        value           nonuniform List<vector> 0();
    }
    outlet2
    {
        type            calculated;
        value           uniform (0 0 0);
    }
    outlet1
    {
        type            calculated;
        value           uniform (0 0 0);
    }
    wall
    {
        type            calculated;
        value           uniform (0 0 0);
    }
    symmetryBottom
    {
        type            symmetry;
    }
    symmetryZ0
    {
        type            symmetry;
    }
    symmetryZ05
    {
        type            symmetry;
    }
    procBoundary0to1
    {
        type            processor;
        value           uniform (0 0 0);
    }
}


// ************************************************************************* //
