/*--------------------------------*- C++ -*----------------------------------*\
| =========                 |                                                 |
| \\      /  F ield         | OpenFOAM: The Open Source CFD Toolbox           |
|  \\    /   O peration     | Version:  2412                                  |
|   \\  /    A nd           | Website:  www.openfoam.com                      |
|    \\/     M anipulation  |                                                 |
\*---------------------------------------------------------------------------*/
FoamFile
{
    version     2.0;
    format      ascii;
    arch        "LSB;label=32;scalar=64";
    class       volScalarField;
    location    "5.9e-06";
    object      rho;
}
// * * * * * * * * * * * * * * * * * * * * * * * * * * * * * * * * * * * * * //

dimensions      [0 0 0 0 0 0 0];

internalField   nonuniform List<scalar> 
84
(
2.74742e-05
1.84427e-05
1.93062e-05
1.92531e-05
1.92568e-05
1.9258e-05
1.92594e-05
1.93873e-05
2.8963e-05
1.94659e-05
2.03902e-05
2.03509e-05
2.03718e-05
2.03906e-05
2.04101e-05
2.05437e-05
2.86807e-05
1.94765e-05
2.02604e-05
2.02348e-05
2.02529e-05
2.02697e-05
2.02872e-05
2.04203e-05
2.85661e-05
1.92667e-05
2.01739e-05
2.0132e-05
2.01497e-05
2.0165e-05
2.02975e-05
2.85115e-05
1.91504e-05
2.0058e-05
2.00143e-05
2.003e-05
2.00434e-05
2.01753e-05
2.83526e-05
1.90409e-05
1.99419e-05
1.98966e-05
1.99104e-05
1.99218e-05
2.00531e-05
2.81931e-05
1.89324e-05
1.9826e-05
1.97793e-05
1.97911e-05
1.98006e-05
1.99313e-05
2.79713e-05
1.88919e-05
1.97045e-05
1.96647e-05
1.96742e-05
1.96817e-05
1.98119e-05
2.7825e-05
1.8721e-05
1.95979e-05
1.95483e-05
1.95564e-05
1.96858e-05
2.77401e-05
1.86187e-05
1.94944e-05
1.94434e-05
1.945e-05
1.95788e-05
2.75462e-05
1.85113e-05
1.93756e-05
1.93233e-05
1.93279e-05
1.94561e-05
2.72495e-05
1.84396e-05
1.92602e-05
1.92102e-05
1.92128e-05
1.9213e-05
1.93408e-05
)
;

boundaryField
{
    inlet
    {
        type            calculated;
        value           nonuniform List<scalar> 0();
    }
    outlet2
    {
        type            calculated;
        value           uniform 0;
    }
    outlet1
    {
        type            calculated;
        value           uniform 0;
    }
    wall
    {
        type            calculated;
        value           uniform 0;
    }
    symmetryBottom
    {
        type            symmetry;
    }
    symmetryZ0
    {
        type            symmetry;
    }
    symmetryZ05
    {
        type            symmetry;
    }
    procBoundary0to1
    {
        type            processor;
        value           uniform 0;
    }
}


// ************************************************************************* //
