/*--------------------------------*- C++ -*----------------------------------*\
| =========                 |                                                 |
| \\      /  F ield         | OpenFOAM: The Open Source CFD Toolbox           |
|  \\    /   O peration     | Version:  2412                                  |
|   \\  /    A nd           | Website:  www.openfoam.com                      |
|    \\/     M anipulation  |                                                 |
\*---------------------------------------------------------------------------*/
FoamFile
{
    version     2.0;
    format      ascii;
    arch        "LSB;label=32;scalar=64";
    class       volVectorField;
    location    "5.9e-06";
    object      rhoU;
}
// * * * * * * * * * * * * * * * * * * * * * * * * * * * * * * * * * * * * * //

dimensions      [0 0 0 0 0 0 0];

internalField   nonuniform List<vector> 
84
(
(0.0723804 0.000166234 1.67739e-19)
(0.0484614 0.000113679 -1.61579e-19)
(0.0507616 0.000120596 -2.87577e-19)
(0.0506189 0.000122015 1.79936e-19)
(0.0506286 0.000123832 -2.35293e-20)
(0.0506314 0.000125687 2.235e-20)
(0.0506346 0.000127599 2.71813e-19)
(0.0509732 0.000128251 3.63746e-20)
(0.0763594 -0.000179585 1.6716e-19)
(0.0511909 -0.000124709 -1.62876e-19)
(0.0536543 -0.000131841 -3.70321e-19)
(0.0535484 -0.000133638 4.42261e-20)
(0.053604 -0.000135814 -6.93668e-19)
(0.0536536 -0.000138048 1.61098e-19)
(0.0537053 -0.000140358 5.62266e-19)
(0.0540593 -0.00014103 1.1372e-19)
(0.0756095 -0.00016171 -6.80704e-19)
(0.0512214 -0.000139345 1.30741e-19)
(0.0533103 -0.000129305 2.14063e-19)
(0.0532413 -0.000133018 -2.43447e-20)
(0.0532891 -0.000135042 -9.53177e-21)
(0.0533337 -0.000137258 2.71343e-19)
(0.05338 -0.000139541 -2.36322e-19)
(0.0537324 -0.000140211 -2.59812e-19)
(0.0753056 -0.000167459 -6.56573e-19)
(0.0506639 -0.000125861 3.07197e-19)
(0.0530817 -0.000132452 -3.35493e-20)
(0.0529691 -0.000134273 -6.30037e-19)
(0.0530159 -0.000136472 6.22539e-19)
(0.0530566 -0.00013873 1.02051e-19)
(0.0534075 -0.000139397 -2.38081e-19)
(0.0751621 -0.000179783 -4.20168e-19)
(0.0503561 -0.000124369 -1.06838e-19)
(0.052775 -0.000131794 1.18172e-20)
(0.0526574 -0.000133554 3.60057e-21)
(0.0526991 -0.000135732 -2.20702e-19)
(0.0527346 -0.000137965 1.82444e-19)
(0.0530839 -0.00013863 3.90947e-19)
(0.07474 -0.000172727 -2.50472e-19)
(0.0500658 -0.000119271 3.31027e-19)
(0.052467 -0.000126471 -3.52016e-20)
(0.0523453 -0.000128186 3.95759e-19)
(0.0523819 -0.000130307 -3.6452e-19)
(0.0524121 -0.000132484 3.06805e-19)
(0.0527598 -0.000133124 -6.67526e-19)
(0.0743143 -0.000138252 -9.06426e-23)
(0.0497759 -9.56287e-05 3.07322e-19)
(0.0521575 -0.000101251 -3.39218e-20)
(0.0520319 -0.000102628 1.01489e-21)
(0.0520633 -0.000104314 3.26242e-19)
(0.0520883 -0.000106043 4.03813e-20)
(0.0524344 -0.000106557 3.23674e-19)
(0.0737248 -0.000102847 6.0059e-21)
(0.0496682 -9.31168e-05 4.45163e-21)
(0.0518344 -8.44136e-05 -1.75971e-21)
(0.0517274 -8.71238e-05 -4.49965e-21)
(0.0517524 -8.84614e-05 -9.26514e-22)
(0.0517724 -8.99442e-05 2.08534e-21)
(0.0521169 -9.03798e-05 -2.64308e-19)
(0.0733345 -9.77752e-05 8.93875e-19)
(0.0492122 -7.31294e-05 -8.41186e-20)
(0.0515496 -7.70546e-05 -6.81506e-19)
(0.0514163 -7.8099e-05 -2.12066e-19)
(0.0514377 -7.93727e-05 3.74236e-19)
(0.0517804 -7.97624e-05 -4.32709e-20)
(0.0731136 -0.000102637 -3.17286e-19)
(0.0489496 -7.0585e-05 3.01274e-20)
(0.0512827 -7.48398e-05 -3.1569e-19)
(0.0511459 -7.57816e-05 3.489e-19)
(0.0511635 -7.69655e-05 5.83896e-19)
(0.0515047 -7.73497e-05 -6.34176e-20)
(0.0726012 -0.00010812 -4.34076e-19)
(0.0486648 -8.08242e-05 4.12956e-20)
(0.0509681 -8.45986e-05 -1.77648e-21)
(0.0508278 -8.57515e-05 6.13842e-19)
(0.05084 -8.7105e-05 6.31599e-19)
(0.0511797 -8.75378e-05 2.16205e-20)
(0.0718164 -1.55866e-05 -3.14294e-20)
(0.0484755 -0.000109153 2.10698e-21)
(0.0506632 -9.8174e-05 -9.97408e-23)
(0.0505292 -0.00010071 3.68932e-19)
(0.0505361 -0.000102194 -3.99922e-20)
(0.0505366 -0.000103788 2.65864e-21)
(0.0508751 -0.000104308 -3.11504e-19)
)
;

boundaryField
{
    inlet
    {
        type            calculated;
        value           nonuniform List<vector> 0();
    }
    outlet2
    {
        type            calculated;
        value           uniform (0 0 0);
    }
    outlet1
    {
        type            calculated;
        value           uniform (0 0 0);
    }
    wall
    {
        type            calculated;
        value           uniform (0 0 0);
    }
    symmetryBottom
    {
        type            symmetry;
    }
    symmetryZ0
    {
        type            symmetry;
    }
    symmetryZ05
    {
        type            symmetry;
    }
    procBoundary0to1
    {
        type            processor;
        value           uniform (0 0 0);
    }
}


// ************************************************************************* //
