/*--------------------------------*- C++ -*----------------------------------*\
| =========                 |                                                 |
| \\      /  F ield         | OpenFOAM: The Open Source CFD Toolbox           |
|  \\    /   O peration     | Version:  2412                                  |
|   \\  /    A nd           | Website:  www.openfoam.com                      |
|    \\/     M anipulation  |                                                 |
\*---------------------------------------------------------------------------*/
FoamFile
{
    version     2.0;
    format      ascii;
    arch        "LSB;label=32;scalar=64";
    class       volScalarField;
    location    "5.9e-06";
    object      T;
}
// * * * * * * * * * * * * * * * * * * * * * * * * * * * * * * * * * * * * * //

dimensions      [0 0 0 0 0 0 0];

internalField   nonuniform List<scalar> 
84
(
203.584
203.635
203.741
203.79
203.849
203.91
203.972
203.966
199.979
199.952
200.005
199.997
199.998
199.997
199.997
199.998
199.959
199.953
200.004
199.997
199.998
199.997
199.997
199.998
199.985
199.949
200.005
199.997
199.997
199.997
199.998
199.985
199.954
200.01
200.002
200.003
200.003
200.003
200.504
200.51
200.564
200.562
200.567
200.572
200.572
203.189
203.287
203.373
203.418
203.471
203.525
203.519
205.565
205.99
206.01
206.11
206.207
206.307
206.295
215.258
217.433
217.542
217.86
218.182
218.141
193.57
193.41
193.37
193.253
193.142
193.154
198.354
198.403
198.418
198.385
198.358
198.362
199.842
199.267
199.352
199.332
199.321
199.31
199.312
)
;

boundaryField
{
    inlet
    {
        type            calculated;
        value           nonuniform List<scalar> 0();
    }
    outlet2
    {
        type            calculated;
        value           uniform 0;
    }
    outlet1
    {
        type            calculated;
        value           uniform 0;
    }
    wall
    {
        type            calculated;
        value           uniform 0;
    }
    symmetryBottom
    {
        type            symmetry;
    }
    symmetryZ0
    {
        type            symmetry;
    }
    symmetryZ05
    {
        type            symmetry;
    }
    procBoundary0to1
    {
        type            processor;
        value           uniform 0;
    }
}


// ************************************************************************* //
