/*--------------------------------*- C++ -*----------------------------------*\
| =========                 |                                                 |
| \\      /  F ield         | OpenFOAM: The Open Source CFD Toolbox           |
|  \\    /   O peration     | Version:  2412                                  |
|   \\  /    A nd           | Website:  www.openfoam.com                      |
|    \\/     M anipulation  |                                                 |
\*---------------------------------------------------------------------------*/
FoamFile
{
    version     2.0;
    format      ascii;
    arch        "LSB;label=32;scalar=64";
    class       volScalarField;
    location    "8.1e-06";
    object      E_dof0;
}
// * * * * * * * * * * * * * * * * * * * * * * * * * * * * * * * * * * * * * //

dimensions      [0 0 0 0 0 0 0];

internalField   nonuniform List<scalar> 
84
(
95.0503
53.7471
59.2526
58.7733
58.8111
58.8157
58.8223
59.3864
102.293
57.9598
63.936
63.494
63.6078
63.6884
63.7736
64.3734
100.734
58.3063
63.3019
63.0005
63.0921
63.165
63.2412
63.8373
100.213
57.16
62.9965
62.5486
62.6475
62.7132
63.3056
100.091
56.6494
62.4973
62.041
62.1314
62.1884
62.7772
99.3186
56.1996
61.9957
61.5352
61.617
61.6653
62.2504
98.5595
55.7652
61.5049
61.0412
61.1145
61.1544
61.7359
97.417
55.7818
60.9589
60.5711
60.629
60.6615
61.2394
96.8119
54.9913
60.6061
60.1369
60.1953
60.7682
96.2685
54.4366
60.027
59.5517
59.601
60.1694
95.3435
54.0417
59.5441
59.068
59.1086
59.6737
93.955
53.8286
59.0482
58.6019
58.632
58.6322
59.1955
)
;

boundaryField
{
    inlet
    {
        type            calculated;
        value           nonuniform List<scalar> 0();
    }
    outlet2
    {
        type            calculated;
        value           uniform 99.4306;
    }
    outlet1
    {
        type            calculated;
        value           uniform 99.4306;
    }
    wall
    {
        type            calculated;
        value           uniform 99.4306;
    }
    symmetryBottom
    {
        type            symmetry;
    }
    symmetryZ0
    {
        type            symmetry;
    }
    symmetryZ05
    {
        type            symmetry;
    }
    procBoundary0to1
    {
        type            processor;
        value           uniform 99.4306;
    }
}


// ************************************************************************* //
