/*--------------------------------*- C++ -*----------------------------------*\
| =========                 |                                                 |
| \\      /  F ield         | OpenFOAM: The Open Source CFD Toolbox           |
|  \\    /   O peration     | Version:  2412                                  |
|   \\  /    A nd           | Website:  www.openfoam.com                      |
|    \\/     M anipulation  |                                                 |
\*---------------------------------------------------------------------------*/
FoamFile
{
    version     2.0;
    format      ascii;
    arch        "LSB;label=32;scalar=64";
    class       volScalarField;
    location    "8.1e-06";
    object      T;
}
// * * * * * * * * * * * * * * * * * * * * * * * * * * * * * * * * * * * * * //

dimensions      [0 0 0 0 0 0 0];

internalField   nonuniform List<scalar> 
84
(
204.927
204.954
205.159
205.215
205.299
205.382
205.468
205.457
199.965
199.887
200.016
199.994
199.997
199.996
199.996
199.997
199.932
199.888
200.014
199.995
199.996
199.996
199.996
199.997
199.981
199.88
200.017
199.994
199.997
199.996
199.997
199.977
199.887
200.026
200.002
200.005
200.005
200.006
200.571
200.546
200.669
200.65
200.655
200.657
200.656
204.349
204.467
204.625
204.675
204.749
204.822
204.811
207.638
208.357
208.332
208.481
208.616
208.757
208.735
221.589
225.874
225.707
226.244
226.759
226.666
190.983
190.777
190.771
190.594
190.44
190.463
197.649
197.735
197.787
197.73
197.694
197.701
199.732
198.894
199.103
199.06
199.047
199.03
199.034
)
;

boundaryField
{
    inlet
    {
        type            calculated;
        value           nonuniform List<scalar> 0();
    }
    outlet2
    {
        type            calculated;
        value           uniform 0;
    }
    outlet1
    {
        type            calculated;
        value           uniform 0;
    }
    wall
    {
        type            calculated;
        value           uniform 0;
    }
    symmetryBottom
    {
        type            symmetry;
    }
    symmetryZ0
    {
        type            symmetry;
    }
    symmetryZ05
    {
        type            symmetry;
    }
    procBoundary0to1
    {
        type            processor;
        value           uniform 0;
    }
}


// ************************************************************************* //
