/*--------------------------------*- C++ -*----------------------------------*\
| =========                 |                                                 |
| \\      /  F ield         | OpenFOAM: The Open Source CFD Toolbox           |
|  \\    /   O peration     | Version:  2412                                  |
|   \\  /    A nd           | Website:  www.openfoam.com                      |
|    \\/     M anipulation  |                                                 |
\*---------------------------------------------------------------------------*/
FoamFile
{
    version     2.0;
    format      ascii;
    arch        "LSB;label=32;scalar=64";
    class       volVectorField;
    location    "8.1e-06";
    object      U;
}
// * * * * * * * * * * * * * * * * * * * * * * * * * * * * * * * * * * * * * //

dimensions      [0 0 0 0 0 0 0];

internalField   nonuniform List<vector> 
84
(
(2633.46 8.17854 8.60142e-15)
(2623.29 8.33254 -1.37364e-14)
(2626.83 8.43889 -1.90247e-14)
(2626.4 8.55995 1.25664e-14)
(2626.41 8.68339 -2.55561e-15)
(2626.39 8.81051 1.85577e-15)
(2626.36 8.94137 1.84411e-14)
(2626.54 8.92269 1.42811e-15)
(2636.14 -8.49669 7.64063e-15)
(2626.19 -8.83535 -1.27622e-14)
(2629.71 -8.86999 -2.37456e-14)
(2629.33 -9.01602 3.93195e-15)
(2629.38 -9.15261 -4.47775e-14)
(2629.4 -9.29467 1.20816e-14)
(2629.42 -9.44112 3.594e-14)
(2629.58 -9.4184 5.76555e-15)
(2635.82 -7.516 -3.06216e-14)
(2626.59 -10.4339 1.17071e-14)
(2629.48 -8.63222 1.22565e-14)
(2629.21 -9.04047 -2.19472e-15)
(2629.25 -9.15289 -7.81578e-16)
(2629.27 -9.29661 1.72811e-14)
(2629.28 -9.44304 -1.50154e-14)
(2629.45 -9.4203 -1.60284e-14)
(2635.75 -7.8872 -2.90689e-14)
(2626 -9.04692 2.35756e-14)
(2629.47 -9.00652 -3.14528e-15)
(2629.09 -9.15715 -4.00725e-14)
(2629.14 -9.29843 4.13461e-14)
(2629.15 -9.44505 5.75025e-15)
(2629.32 -9.42229 -1.49272e-14)
(2635.8 -8.65178 -1.64851e-14)
(2625.82 -8.9352 -6.74427e-15)
(2629.35 -9.01895 1.04065e-15)
(2628.96 -9.16248 3.16874e-16)
(2629.01 -9.30429 -1.33304e-14)
(2629.02 -9.45107 1.2105e-14)
(2629.19 -9.42828 2.58542e-14)
(2635.65 -8.42283 -1.16072e-14)
(2625.65 -8.67873 2.48085e-14)
(2629.18 -8.77084 -3.33285e-15)
(2628.79 -8.91378 2.6645e-14)
(2628.84 -9.056 -2.53051e-14)
(2628.85 -9.20329 2.10709e-14)
(2629.01 -9.18093 -4.34955e-14)
(2635.39 -6.76877 -5.11582e-18)
(2625.28 -7.00609 2.21686e-14)
(2628.84 -7.05634 -3.14007e-15)
(2628.44 -7.17472 2.07272e-16)
(2628.48 -7.28857 2.19142e-14)
(2628.48 -7.40684 1.97116e-15)
(2628.65 -7.38894 2.13719e-14)
(2635.13 -4.89129 3.68141e-16)
(2625.26 -7.37264 5.23152e-16)
(2628.55 -5.84686 -1.6929e-16)
(2628.2 -6.17473 -4.29421e-16)
(2628.23 -6.25362 -7.45862e-17)
(2628.23 -6.35864 2.18995e-16)
(2628.4 -6.34287 -1.64981e-14)
(2634.84 -4.72476 4.41344e-14)
(2624.54 -5.42297 -9.68517e-15)
(2628.17 -5.40885 -4.59989e-14)
(2627.74 -5.50058 -1.19841e-14)
(2627.77 -5.58807 2.63103e-14)
(2627.95 -5.57485 -4.42245e-15)
(2635.08 -5.01864 -1.51797e-14)
(2625.28 -5.15248 3.46093e-15)
(2628.74 -5.20768 -2.12612e-14)
(2628.34 -5.28716 2.4623e-14)
(2628.38 -5.36661 3.90026e-14)
(2628.55 -5.35468 -5.61075e-15)
(2635 -5.2335 -1.81671e-14)
(2625.05 -6.06142 4.58086e-15)
(2628.55 -5.95826 -2.93748e-16)
(2628.15 -6.06662 4.12732e-14)
(2628.18 -6.15959 4.08167e-14)
(2628.35 -6.1455 2.96175e-16)
(2634.86 -0.995994 -1.8676e-15)
(2625 -8.69493 3.104e-16)
(2628.45 -6.87143 -1.91568e-17)
(2628.05 -7.168 2.60332e-14)
(2628.09 -7.26222 -3.91571e-15)
(2628.08 -7.37547 3.65272e-16)
(2628.25 -7.35879 -2.08056e-14)
)
;

boundaryField
{
    inlet
    {
        type            calculated;
        value           nonuniform List<vector> 0();
    }
    outlet2
    {
        type            calculated;
        value           uniform (0 0 0);
    }
    outlet1
    {
        type            calculated;
        value           uniform (0 0 0);
    }
    wall
    {
        type            calculated;
        value           uniform (0 0 0);
    }
    symmetryBottom
    {
        type            symmetry;
    }
    symmetryZ0
    {
        type            symmetry;
    }
    symmetryZ05
    {
        type            symmetry;
    }
    procBoundary0to1
    {
        type            processor;
        value           uniform (0 0 0);
    }
}


// ************************************************************************* //
