/*--------------------------------*- C++ -*----------------------------------*\
| =========                 |                                                 |
| \\      /  F ield         | OpenFOAM: The Open Source CFD Toolbox           |
|  \\    /   O peration     | Version:  2412                                  |
|   \\  /    A nd           | Website:  www.openfoam.com                      |
|    \\/     M anipulation  |                                                 |
\*---------------------------------------------------------------------------*/
FoamFile
{
    version     2.0;
    format      ascii;
    arch        "LSB;label=32;scalar=64";
    class       volScalarField;
    location    "3.3e-06";
    object      E_dof0;
}
// * * * * * * * * * * * * * * * * * * * * * * * * * * * * * * * * * * * * * //

dimensions      [0 0 0 0 0 0 0];

internalField   nonuniform List<scalar> 
84
(
98.774
79.1905
80.2365
80.2018
80.2043
80.2059
80.2076
80.4967
101.826
81.6926
82.8065
82.8098
82.8525
82.8956
82.9402
83.2365
101.36
81.5688
82.5315
82.5401
82.5782
82.617
82.657
82.9526
101.111
81.2097
82.3075
82.3039
82.3392
82.3747
82.6696
100.922
80.9437
82.039
82.0311
82.062
82.093
82.3872
100.606
80.6839
81.772
81.76
81.7866
81.8131
82.1066
100.297
80.4302
81.5109
81.4949
81.5173
81.5395
81.8322
99.9118
80.2554
81.2492
81.2345
81.2526
81.2705
81.5625
99.6607
79.9675
81.0333
81.0103
81.0252
81.3166
99.3301
79.6354
80.6948
80.6667
80.6763
80.9667
98.9933
79.392
80.4419
80.41
80.4154
80.7051
98.3886
79.18
80.1791
80.1457
80.1469
80.1472
80.4363
)
;

boundaryField
{
    inlet
    {
        type            calculated;
        value           nonuniform List<scalar> 0();
    }
    outlet2
    {
        type            calculated;
        value           uniform 99.4306;
    }
    outlet1
    {
        type            calculated;
        value           uniform 99.4306;
    }
    wall
    {
        type            calculated;
        value           uniform 99.4306;
    }
    symmetryBottom
    {
        type            symmetry;
    }
    symmetryZ0
    {
        type            symmetry;
    }
    symmetryZ05
    {
        type            symmetry;
    }
    procBoundary0to1
    {
        type            processor;
        value           uniform 99.4306;
    }
}


// ************************************************************************* //
