/*--------------------------------*- C++ -*----------------------------------*\
| =========                 |                                                 |
| \\      /  F ield         | OpenFOAM: The Open Source CFD Toolbox           |
|  \\    /   O peration     | Version:  2412                                  |
|   \\  /    A nd           | Website:  www.openfoam.com                      |
|    \\/     M anipulation  |                                                 |
\*---------------------------------------------------------------------------*/
FoamFile
{
    version     2.0;
    format      ascii;
    arch        "LSB;label=32;scalar=64";
    class       volVectorField;
    location    "3.3e-06";
    object      rhoU;
}
// * * * * * * * * * * * * * * * * * * * * * * * * * * * * * * * * * * * * * //

dimensions      [0 0 0 0 0 0 0];

internalField   nonuniform List<vector> 
84
(
(0.0736262 9.6239e-05 9.8137e-20)
(0.0591054 7.87973e-05 -9.8346e-20)
(0.0598766 8.09386e-05 -2.19564e-19)
(0.0598513 8.21022e-05 1.07582e-19)
(0.0598531 8.3336e-05 -6.54492e-21)
(0.0598544 8.46065e-05 1.27528e-20)
(0.0598557 8.59164e-05 2.08968e-19)
(0.0600702 8.61479e-05 4.26026e-20)
(0.075884 -0.0001 1.0157e-19)
(0.0609581 -8.26898e-05 -9.61718e-20)
(0.0617794 -8.48721e-05 -2.62579e-19)
(0.0617822 -8.6162e-05 1.75149e-20)
(0.0618139 -8.75225e-05 -4.74336e-19)
(0.0618459 -8.8926e-05 7.74411e-20)
(0.0618789 -9.03752e-05 3.81476e-19)
(0.0620987 -9.06027e-05 7.89161e-20)
(0.0755388 -9.40432e-05 -4.50662e-19)
(0.0608656 -8.71867e-05 7.1457e-20)
(0.0615756 -8.43121e-05 1.36822e-19)
(0.0615822 -8.59119e-05 -8.97021e-21)
(0.0616104 -8.7253e-05 -4.19948e-21)
(0.0616392 -8.86482e-05 1.97009e-19)
(0.0616688 -9.00884e-05 -1.57573e-19)
(0.0618881 -9.03154e-05 -1.94655e-19)
(0.0753548 -9.6465e-05 -4.44598e-19)
(0.0605999 -8.35679e-05 2.1096e-19)
(0.0614093 -8.56683e-05 -1.22847e-20)
(0.0614069 -8.69842e-05 -4.2476e-19)
(0.0614331 -8.83713e-05 4.03175e-19)
(0.0614594 -8.98026e-05 8.19836e-20)
(0.0616781 -9.00291e-05 -1.57047e-19)
(0.0752143 -0.000100689 -2.48314e-19)
(0.0604025 -8.31764e-05 -7.98044e-20)
(0.0612101 -8.54256e-05 4.59756e-21)
(0.0612046 -8.673e-05 1.39259e-21)
(0.0612275 -8.81092e-05 -1.4262e-19)
(0.0612505 -8.95321e-05 1.09805e-19)
(0.0614686 -8.97582e-05 2.76285e-19)
(0.0749783 -9.61158e-05 -1.51817e-19)
(0.0602083 -7.93107e-05 2.3319e-19)
(0.0610105 -8.14749e-05 -1.28232e-20)
(0.0610019 -8.27285e-05 2.80588e-19)
(0.0610216 -8.40545e-05 -2.51985e-19)
(0.0610413 -8.54228e-05 2.17409e-19)
(0.0612589 -8.56398e-05 -4.6114e-19)
(0.0747409 -7.72508e-05 -3.48511e-23)
(0.0600136 -6.37321e-05 2.28662e-19)
(0.0608102 -6.54512e-05 -1.26031e-20)
(0.0607986 -6.64554e-05 -3.2906e-22)
(0.0608151 -6.75163e-05 2.32486e-19)
(0.0608313 -6.86111e-05 3.53838e-20)
(0.0610484 -6.87865e-05 2.39971e-19)
(0.0744475 -6.05669e-05 1.9551e-21)
(0.0598769 -5.75675e-05 1.34924e-21)
(0.0606092 -5.50546e-05 -8.38014e-22)
(0.0605984 -5.61568e-05 -1.65134e-21)
(0.0606115 -5.70474e-05 -3.02786e-22)
(0.0606246 -5.7976e-05 5.81581e-22)
(0.0608411 -5.81248e-05 -2.04714e-19)
(0.0742283 -5.69426e-05 5.35846e-19)
(0.0596343 -4.90792e-05 -2.80978e-20)
(0.0604189 -5.03454e-05 -4.63579e-19)
(0.0604014 -5.11209e-05 -1.73104e-19)
(0.0604117 -5.19398e-05 2.57734e-19)
(0.0606277 -5.20747e-05 -4.58803e-21)
(0.0740585 -5.8941e-05 -1.91504e-19)
(0.0594513 -4.84513e-05 1.00071e-20)
(0.060233 -4.97765e-05 -2.28361e-19)
(0.0602128 -5.05231e-05 2.41942e-19)
(0.0602202 -5.13137e-05 4.06942e-19)
(0.0604356 -5.14486e-05 -2.50043e-20)
(0.0737911 -6.3738e-05 -2.58827e-19)
(0.0592563 -5.46939e-05 1.33876e-20)
(0.0600305 -5.6012e-05 -1.56857e-22)
(0.0600073 -5.68637e-05 4.16529e-19)
(0.0600113 -5.77589e-05 4.43731e-19)
(0.0602263 -5.79103e-05 2.63731e-20)
(0.0733367 -5.46766e-06 -1.19918e-20)
(0.0590961 -6.94684e-05 4.07127e-22)
(0.0598324 -6.57843e-05 -1.00064e-23)
(0.059808 -6.69943e-05 2.63605e-19)
(0.0598089 -6.80212e-05 -1.50465e-20)
(0.0598092 -6.9087e-05 5.24705e-22)
(0.0600236 -6.92704e-05 -2.40339e-19)
)
;

boundaryField
{
    inlet
    {
        type            calculated;
        value           nonuniform List<vector> 0();
    }
    outlet2
    {
        type            calculated;
        value           uniform (0 0 0);
    }
    outlet1
    {
        type            calculated;
        value           uniform (0 0 0);
    }
    wall
    {
        type            calculated;
        value           uniform (0 0 0);
    }
    symmetryBottom
    {
        type            symmetry;
    }
    symmetryZ0
    {
        type            symmetry;
    }
    symmetryZ05
    {
        type            symmetry;
    }
    procBoundary0to1
    {
        type            processor;
        value           uniform (0 0 0);
    }
}


// ************************************************************************* //
