/*--------------------------------*- C++ -*----------------------------------*\
| =========                 |                                                 |
| \\      /  F ield         | OpenFOAM: The Open Source CFD Toolbox           |
|  \\    /   O peration     | Version:  2412                                  |
|   \\  /    A nd           | Website:  www.openfoam.com                      |
|    \\/     M anipulation  |                                                 |
\*---------------------------------------------------------------------------*/
FoamFile
{
    version     2.0;
    format      ascii;
    arch        "LSB;label=32;scalar=64";
    class       volVectorField;
    location    "3.3e-06";
    object      U;
}
// * * * * * * * * * * * * * * * * * * * * * * * * * * * * * * * * * * * * * //

dimensions      [0 0 0 0 0 0 0];

internalField   nonuniform List<vector> 
84
(
(2635.51 3.44495 3.51289e-15)
(2631.95 3.50883 -4.37933e-15)
(2632.37 3.55832 -9.65274e-15)
(2632.34 3.61096 4.73159e-15)
(2632.33 3.6651 -2.87844e-16)
(2632.32 3.72089 5.60851e-16)
(2632.31 3.77839 9.18989e-15)
(2632.37 3.77513 1.86691e-15)
(2636.61 -3.47455 3.52908e-15)
(2633.1 -3.57181 -4.15417e-15)
(2633.54 -3.61793 -1.11932e-14)
(2633.52 -3.67273 7.46589e-16)
(2633.53 -3.72883 -2.02087e-14)
(2633.54 -3.78667 3.29762e-15)
(2633.55 -3.84634 1.62355e-14)
(2633.61 -3.84246 3.34683e-15)
(2636.52 -3.28238 -1.57294e-14)
(2633.11 -3.77178 3.0913e-15)
(2633.48 -3.60588 5.85163e-15)
(2633.47 -3.6739 -3.83598e-16)
(2633.48 -3.72954 -1.79503e-16)
(2633.49 -3.78743 8.41706e-15)
(2633.49 -3.84712 -6.72896e-15)
(2633.55 -3.84324 -8.28324e-15)
(2636.49 -3.37508 -1.55554e-14)
(2633.01 -3.63095 9.16602e-15)
(2633.44 -3.67375 -5.26809e-16)
(2633.43 -3.7303 -1.82158e-14)
(2633.43 -3.78818 1.72828e-14)
(2633.44 -3.8479 3.51287e-15)
(2633.5 -3.84401 -6.70551e-15)
(2636.47 -3.52944 -8.70412e-15)
(2632.96 -3.62567 -3.47869e-15)
(2633.39 -3.67519 1.97797e-16)
(2633.37 -3.73163 5.99172e-17)
(2633.38 -3.78955 -6.13403e-15)
(2633.39 -3.84932 4.72093e-15)
(2633.44 -3.84543 1.18366e-14)
(2636.41 -3.37966 -5.33825e-15)
(2632.89 -3.46823 1.01973e-14)
(2633.32 -3.5166 -5.5347e-16)
(2633.3 -3.57119 1.21123e-14)
(2633.31 -3.62726 -1.08741e-14)
(2633.31 -3.68513 9.37901e-15)
(2633.37 -3.68145 -1.98233e-14)
(2636.31 -2.72484 -1.22929e-18)
(2632.77 -2.79589 1.00313e-14)
(2633.2 -2.83416 -5.45741e-16)
(2633.18 -2.87818 -1.42515e-17)
(2633.19 -2.92334 1.00663e-14)
(2633.19 -2.96995 1.53165e-15)
(2633.25 -2.96702 1.03509e-14)
(2636.22 -2.1447 6.92312e-17)
(2632.71 -2.53117 5.93244e-17)
(2633.12 -2.3918 -3.64068e-17)
(2633.1 -2.4401 -7.17535e-17)
(2633.1 -2.47827 -1.31537e-17)
(2633.1 -2.51807 2.52598e-17)
(2633.16 -2.5156 -8.85989e-15)
(2636.15 -2.02227 1.90301e-14)
(2632.59 -2.16663 -1.2404e-15)
(2633.03 -2.19403 -2.02026e-14)
(2633.01 -2.22845 -7.54593e-15)
(2633.01 -2.26376 1.12332e-14)
(2633.07 -2.26161 -1.99259e-16)
(2636.17 -2.09805 -6.81673e-15)
(2632.67 -2.14556 4.43143e-16)
(2633.1 -2.17599 -9.98285e-15)
(2633.08 -2.20935 1.058e-14)
(2633.08 -2.24365 1.77932e-14)
(2633.14 -2.24158 -1.08942e-15)
(2636.15 -2.27701 -9.24647e-15)
(2632.63 -2.42993 5.94782e-16)
(2633.05 -2.45679 -6.88004e-18)
(2633.03 -2.4951 1.82767e-14)
(2633.03 -2.53421 1.94689e-14)
(2633.09 -2.53184 1.15303e-15)
(2636.09 -0.196535 -4.31046e-16)
(2632.6 -3.09466 1.81366e-17)
(2633.02 -2.89494 -4.40349e-19)
(2633 -2.94937 1.1605e-14)
(2633 -2.99454 -6.624e-16)
(2633 -3.04144 2.30993e-17)
(2633.06 -3.03869 -1.0543e-14)
)
;

boundaryField
{
    inlet
    {
        type            calculated;
        value           nonuniform List<vector> 0();
    }
    outlet2
    {
        type            calculated;
        value           uniform (0 0 0);
    }
    outlet1
    {
        type            calculated;
        value           uniform (0 0 0);
    }
    wall
    {
        type            calculated;
        value           uniform (0 0 0);
    }
    symmetryBottom
    {
        type            symmetry;
    }
    symmetryZ0
    {
        type            symmetry;
    }
    symmetryZ05
    {
        type            symmetry;
    }
    procBoundary0to1
    {
        type            processor;
        value           uniform (0 0 0);
    }
}


// ************************************************************************* //
