/*--------------------------------*- C++ -*----------------------------------*\
| =========                 |                                                 |
| \\      /  F ield         | OpenFOAM: The Open Source CFD Toolbox           |
|  \\    /   O peration     | Version:  2412                                  |
|   \\  /    A nd           | Website:  www.openfoam.com                      |
|    \\/     M anipulation  |                                                 |
\*---------------------------------------------------------------------------*/
FoamFile
{
    version     2.0;
    format      ascii;
    arch        "LSB;label=32;scalar=64";
    class       volScalarField;
    location    "6.4e-06";
    object      T;
}
// * * * * * * * * * * * * * * * * * * * * * * * * * * * * * * * * * * * * * //

dimensions      [0 0 0 0 0 0 0];

internalField   nonuniform List<scalar> 
84
(
200.012
197.024
200.256
199.972
196.895
200.18
199.961
196.878
200.166
199.961
196.878
200.166
199.961
196.878
200.166
199.961
196.878
200.166
199.961
196.878
200.166
199.961
196.878
200.166
199.961
196.878
200.166
199.961
196.878
200.166
199.961
196.877
200.166
199.962
196.841
200.157
204.053
203.794
203.82
200.024
199.988
199.999
200.024
199.988
200
200.024
199.988
199.999
200.03
200.029
199.993
200.004
200.003
200.626
200.548
200.567
200.566
203.614
203.369
203.448
203.44
206.437
206.028
206.163
206.15
218.63
217.324
217.745
218.028
198.2
193.133
193.431
193.312
193.211
192.871
198.367
198.421
198.399
198.376
198.502
199.329
199.331
199.328
199.328
)
;

boundaryField
{
    inlet
    {
        type            calculated;
        value           uniform 0;
    }
    outlet2
    {
        type            calculated;
        value           uniform 0;
    }
    outlet1
    {
        type            calculated;
        value           nonuniform List<scalar> 0();
    }
    wall
    {
        type            calculated;
        value           uniform 0;
    }
    symmetryBottom
    {
        type            symmetry;
    }
    symmetryZ0
    {
        type            symmetry;
    }
    symmetryZ05
    {
        type            symmetry;
    }
    procBoundary1to0
    {
        type            processor;
        value           uniform 0;
    }
}


// ************************************************************************* //
