/*--------------------------------*- C++ -*----------------------------------*\
| =========                 |                                                 |
| \\      /  F ield         | OpenFOAM: The Open Source CFD Toolbox           |
|  \\    /   O peration     | Version:  2412                                  |
|   \\  /    A nd           | Website:  www.openfoam.com                      |
|    \\/     M anipulation  |                                                 |
\*---------------------------------------------------------------------------*/
FoamFile
{
    version     2.0;
    format      ascii;
    arch        "LSB;label=32;scalar=64";
    class       volScalarField;
    location    "5.8e-06";
    object      rho_dof0;
}
// * * * * * * * * * * * * * * * * * * * * * * * * * * * * * * * * * * * * * //

dimensions      [0 0 0 0 0 0 0];

internalField   nonuniform List<scalar> 
84
(
2.81105e-05
7.38547e-06
1.17447e-05
2.81187e-05
7.3925e-06
1.17513e-05
2.81166e-05
7.3916e-06
1.17501e-05
2.81166e-05
7.3916e-06
1.17501e-05
2.81166e-05
7.3916e-06
1.17501e-05
2.81166e-05
7.3916e-06
1.17501e-05
2.81166e-05
7.3916e-06
1.17501e-05
2.81166e-05
7.3916e-06
1.17501e-05
2.81166e-05
7.3916e-06
1.17501e-05
2.81166e-05
7.3916e-06
1.17501e-05
2.81166e-05
7.39159e-06
1.17501e-05
2.81167e-05
7.39002e-06
1.17493e-05
2.0243e-05
1.93146e-05
1.94883e-05
2.13523e-05
2.03157e-05
2.0502e-05
2.12346e-05
2.02093e-05
2.03932e-05
2.11174e-05
2.01035e-05
2.0184e-05
1.92607e-05
2.10006e-05
1.99981e-05
2.00762e-05
2.01898e-05
2.08839e-05
1.98928e-05
1.99684e-05
2.00816e-05
2.07674e-05
1.97877e-05
1.98609e-05
1.99737e-05
2.0653e-05
1.96845e-05
1.97553e-05
1.9867e-05
2.0533e-05
1.95764e-05
1.96446e-05
1.96463e-05
1.93113e-05
2.04293e-05
1.94825e-05
1.95487e-05
1.9549e-05
1.96628e-05
2.03122e-05
1.93768e-05
1.94406e-05
1.94397e-05
1.9584e-05
2.02013e-05
1.92765e-05
1.93381e-05
1.94485e-05
)
;

boundaryField
{
    inlet
    {
        type            calculated;
        value           uniform 2.81085e-05;
    }
    outlet2
    {
        type            calculated;
        value           uniform 2.81085e-05;
    }
    outlet1
    {
        type            calculated;
        value           nonuniform List<scalar> 0();
    }
    wall
    {
        type            calculated;
        value           uniform 2.81085e-05;
    }
    symmetryBottom
    {
        type            symmetry;
    }
    symmetryZ0
    {
        type            symmetry;
    }
    symmetryZ05
    {
        type            symmetry;
    }
    procBoundary1to0
    {
        type            processor;
        value           uniform 2.81085e-05;
    }
}


// ************************************************************************* //
