/*--------------------------------*- C++ -*----------------------------------*\
| =========                 |                                                 |
| \\      /  F ield         | OpenFOAM: The Open Source CFD Toolbox           |
|  \\    /   O peration     | Version:  2412                                  |
|   \\  /    A nd           | Website:  www.openfoam.com                      |
|    \\/     M anipulation  |                                                 |
\*---------------------------------------------------------------------------*/
FoamFile
{
    version     2.0;
    format      ascii;
    arch        "LSB;label=32;scalar=64";
    class       volScalarField;
    location    "5e-07";
    object      E;
}
// * * * * * * * * * * * * * * * * * * * * * * * * * * * * * * * * * * * * * //

dimensions      [0 0 0 0 0 0 0];

internalField   nonuniform List<scalar> 
84
(
99.4306
91.6016
91.7276
99.4308
91.6032
91.7291
99.4308
91.6031
91.7291
99.4308
91.6031
91.7291
99.4308
91.6031
91.7291
99.4308
91.6031
91.7291
99.4308
91.6031
91.7291
99.4308
91.6031
91.7291
99.4308
91.6031
91.7291
99.4308
91.6031
91.7291
99.4308
91.6031
91.7291
99.4308
91.6025
91.7285
96.2673
96.2367
96.2814
96.7032
96.6758
96.7206
96.659
96.6313
96.676
96.6148
96.5868
96.592
96.23
96.5707
96.5423
96.5469
96.5921
96.5269
96.4982
96.5021
96.5474
96.484
96.455
96.4583
96.5036
96.4415
96.4121
96.4148
96.46
96.4036
96.374
96.3761
96.3782
96.2311
96.3459
96.3159
96.3172
96.3185
96.3642
96.3052
96.2749
96.2757
96.2763
96.3226
96.2619
96.2313
96.2314
96.2766
)
;

boundaryField
{
    inlet
    {
        type            calculated;
        value           uniform 0;
    }
    outlet2
    {
        type            calculated;
        value           uniform 0;
    }
    outlet1
    {
        type            calculated;
        value           nonuniform List<scalar> 0();
    }
    wall
    {
        type            calculated;
        value           uniform 0;
    }
    symmetryBottom
    {
        type            symmetry;
    }
    symmetryZ0
    {
        type            symmetry;
    }
    symmetryZ05
    {
        type            symmetry;
    }
    procBoundary1to0
    {
        type            processor;
        value           uniform 0;
    }
}


// ************************************************************************* //
