/*--------------------------------*- C++ -*----------------------------------*\
| =========                 |                                                 |
| \\      /  F ield         | OpenFOAM: The Open Source CFD Toolbox           |
|  \\    /   O peration     | Version:  2412                                  |
|   \\  /    A nd           | Website:  www.openfoam.com                      |
|    \\/     M anipulation  |                                                 |
\*---------------------------------------------------------------------------*/
FoamFile
{
    version     2.0;
    format      ascii;
    arch        "LSB;label=32;scalar=64";
    class       volVectorField;
    location    "5e-07";
    object      rhoU_dof0;
}
// * * * * * * * * * * * * * * * * * * * * * * * * * * * * * * * * * * * * * //

dimensions      [0 0 0 0 0 0 0];

internalField   nonuniform List<vector> 
84
(
(0.0741049 -2.63769e-09 0)
(0.0683028 -4.57883e-08 0)
(0.0683957 -4.47515e-08 -1.71738e-20)
(0.0741051 -1.38075e-05 0)
(0.068304 -1.3151e-05 0)
(0.0683968 -1.31598e-05 -1.56126e-20)
(0.074105 -1.38022e-05 0)
(0.0683039 -1.31469e-05 0)
(0.0683968 -1.31557e-05 2.65414e-20)
(0.074105 -1.38022e-05 0)
(0.0683039 -1.31469e-05 0)
(0.0683968 -1.31557e-05 -3.59092e-20)
(0.074105 -1.38022e-05 0)
(0.0683039 -1.31469e-05 0)
(0.0683968 -1.31557e-05 -6.24505e-20)
(0.074105 -1.38022e-05 0)
(0.0683039 -1.31469e-05 0)
(0.0683968 -1.31557e-05 3.43477e-20)
(0.074105 -1.38022e-05 0)
(0.0683039 -1.31469e-05 0)
(0.0683968 -1.31557e-05 -4.52768e-20)
(0.074105 -1.38022e-05 0)
(0.0683039 -1.31469e-05 0)
(0.0683968 -1.31557e-05 -5.30829e-20)
(0.074105 -1.38022e-05 0)
(0.0683039 -1.31469e-05 0)
(0.0683968 -1.31557e-05 1.87351e-20)
(0.074105 -1.38022e-05 0)
(0.0683039 -1.31469e-05 0)
(0.0683968 -1.31557e-05 -4.21544e-20)
(0.074105 -1.38022e-05 0)
(0.0683039 -1.31469e-05 0)
(0.0683968 -1.31556e-05 -1.15533e-19)
(0.0741051 -1.3804e-05 0)
(0.0683035 -1.31053e-05 0)
(0.0683964 -1.31151e-05 0)
(0.0717611 1.40176e-05 1.11803e-22)
(0.0717385 1.41201e-05 1.29908e-20)
(0.0717716 1.41248e-05 1.42321e-21)
(0.0720835 -1.395e-05 1.01671e-22)
(0.0720634 -1.41433e-05 1.43055e-20)
(0.0720965 -1.41467e-05 -1.59693e-23)
(0.0720508 -1.39459e-05 -1.67782e-22)
(0.0720304 -1.41392e-05 -5.2091e-21)
(0.0720635 -1.4142e-05 -3.01066e-20)
(0.072018 -1.39419e-05 2.43685e-22)
(0.0719974 -1.41351e-05 -2.36992e-22)
(0.0720012 -1.43366e-05 1.44568e-24)
(0.071733 4.31066e-08 2.25383e-20)
(0.0719853 -1.39376e-05 -9.84103e-21)
(0.0719644 -1.41306e-05 -1.64132e-22)
(0.0719678 -1.4332e-05 -2.38259e-22)
(0.0720014 -1.43354e-05 1.99156e-20)
(0.0719526 -1.32047e-05 -2.13548e-22)
(0.0719314 -1.33925e-05 -1.68947e-20)
(0.0719343 -1.35834e-05 -3.33973e-22)
(0.0719679 -1.35867e-05 1.32724e-20)
(0.0719197 -1.06293e-05 1.78587e-22)
(0.0718983 -1.07978e-05 -4.60668e-24)
(0.0719008 -1.09516e-05 -1.22151e-22)
(0.0719343 -1.09544e-05 -1.20389e-22)
(0.071887 -8.93829e-06 4.39027e-22)
(0.0718654 -9.09412e-06 -1.54848e-20)
(0.0718673 -9.22367e-06 1.47272e-20)
(0.0719009 -9.22573e-06 9.13036e-23)
(0.0718543 -8.12713e-06 -1.17286e-22)
(0.0718325 -8.27675e-06 -2.32594e-20)
(0.071834 -8.39456e-06 -2.22292e-20)
(0.0718354 -8.51586e-06 2.42504e-20)
(0.0717338 4.99828e-08 1.6263e-19)
(0.071822 -8.19026e-06 3.47745e-22)
(0.0717999 -8.33994e-06 -2.46753e-20)
(0.0718009 -8.45826e-06 1.46659e-20)
(0.0718019 -8.58011e-06 3.99661e-20)
(0.0718359 -8.58566e-06 2.29383e-20)
(0.0717894 -9.1826e-06 8.10221e-22)
(0.0717671 -9.33962e-06 -1.42941e-24)
(0.0717677 -9.47224e-06 2.9817e-23)
(0.0717682 -9.60921e-06 8.20043e-24)
(0.0718025 -9.64095e-06 -2.15284e-20)
(0.0717568 -1.10505e-05 1.72178e-23)
(0.0717343 -1.12209e-05 2.33871e-20)
(0.0717344 -1.13802e-05 -1.39358e-22)
(0.0717678 -1.13833e-05 -3.71249e-20)
)
;

boundaryField
{
    inlet
    {
        type            calculated;
        value           uniform (0.0741049 0 0);
    }
    outlet2
    {
        type            calculated;
        value           uniform (0.0741049 0 0);
    }
    outlet1
    {
        type            calculated;
        value           nonuniform List<vector> 0();
    }
    wall
    {
        type            calculated;
        value           uniform (0.0741049 0 0);
    }
    symmetryBottom
    {
        type            symmetry;
    }
    symmetryZ0
    {
        type            symmetry;
    }
    symmetryZ05
    {
        type            symmetry;
    }
    procBoundary1to0
    {
        type            processor;
        value           uniform (0.0741049 0 0);
    }
}


// ************************************************************************* //
