/*--------------------------------*- C++ -*----------------------------------*\
| =========                 |                                                 |
| \\      /  F ield         | OpenFOAM: The Open Source CFD Toolbox           |
|  \\    /   O peration     | Version:  2412                                  |
|   \\  /    A nd           | Website:  www.openfoam.com                      |
|    \\/     M anipulation  |                                                 |
\*---------------------------------------------------------------------------*/
FoamFile
{
    version     2.0;
    format      ascii;
    arch        "LSB;label=32;scalar=64";
    class       volVectorField;
    location    "5e-07";
    object      U;
}
// * * * * * * * * * * * * * * * * * * * * * * * * * * * * * * * * * * * * * //

dimensions      [0 0 0 0 0 0 0];

internalField   nonuniform List<vector> 
84
(
(2636.39 -9.38396e-05 0)
(2635.08 -0.00176648 0)
(2635.12 -0.00172417 -6.61665e-16)
(2636.39 -0.491219 0)
(2635.08 -0.50735 0)
(2635.12 -0.507009 -6.01505e-16)
(2636.39 -0.491033 0)
(2635.08 -0.507189 0)
(2635.12 -0.506847 1.02256e-15)
(2636.39 -0.491033 0)
(2635.08 -0.507189 0)
(2635.12 -0.506847 -1.38347e-15)
(2636.39 -0.491033 0)
(2635.08 -0.507189 0)
(2635.12 -0.506847 -2.40603e-15)
(2636.39 -0.491033 0)
(2635.08 -0.507189 0)
(2635.12 -0.506847 1.32331e-15)
(2636.39 -0.491033 0)
(2635.08 -0.507189 0)
(2635.12 -0.506847 -1.74438e-15)
(2636.39 -0.491033 0)
(2635.08 -0.507189 0)
(2635.12 -0.506847 -2.04512e-15)
(2636.39 -0.491033 0)
(2635.08 -0.507189 0)
(2635.12 -0.506847 7.21806e-16)
(2636.39 -0.491033 0)
(2635.08 -0.507189 0)
(2635.12 -0.506847 -1.62408e-15)
(2636.39 -0.491033 0)
(2635.08 -0.507189 0)
(2635.12 -0.506847 -4.45115e-15)
(2636.39 -0.491095 0)
(2635.08 -0.505588 0)
(2635.12 -0.505288 0)
(2635.79 0.514867 4.10655e-18)
(2635.78 0.518793 4.773e-16)
(2635.79 0.518729 5.22669e-17)
(2635.96 -0.510123 3.71793e-18)
(2635.95 -0.517338 5.23269e-16)
(2635.96 -0.517224 -5.83863e-19)
(2635.95 -0.510207 -6.13823e-18)
(2635.94 -0.517423 -1.90626e-16)
(2635.95 -0.517288 -1.10124e-15)
(2635.94 -0.510291 8.91916e-18)
(2635.93 -0.517508 -8.67665e-18)
(2635.93 -0.524856 5.29256e-20)
(2635.88 0.00158398 8.28184e-16)
(2635.94 -0.510361 -3.60356e-16)
(2635.93 -0.51758 -6.01185e-18)
(2635.93 -0.52493 -8.72658e-18)
(2635.93 -0.524813 7.291e-16)
(2635.93 -0.483745 -7.82317e-18)
(2635.92 -0.490764 -6.19102e-16)
(2635.92 -0.49774 -1.22379e-17)
(2635.92 -0.497632 4.8612e-16)
(2635.91 -0.389573 6.54536e-18)
(2635.9 -0.395862 -1.68888e-19)
(2635.9 -0.401488 -4.47808e-18)
(2635.91 -0.401406 -4.41145e-18)
(2635.9 -0.327743 1.60979e-17)
(2635.89 -0.333556 -5.67955e-16)
(2635.89 -0.338298 5.40154e-16)
(2635.9 -0.338217 3.34721e-18)
(2635.89 -0.298135 -4.30252e-18)
(2635.88 -0.303714 -8.53502e-16)
(2635.88 -0.308031 -8.15679e-16)
(2635.88 -0.312476 8.89831e-16)
(2635.87 0.00183663 5.97586e-15)
(2635.89 -0.300585 1.27623e-17)
(2635.88 -0.306172 -9.05866e-16)
(2635.88 -0.310511 5.384e-16)
(2635.88 -0.31498 1.46718e-15)
(2635.89 -0.315036 8.41679e-16)
(2635.89 -0.337157 2.97488e-17)
(2635.88 -0.343028 -5.24998e-20)
(2635.88 -0.347896 1.09512e-18)
(2635.88 -0.352924 3.01183e-19)
(2635.89 -0.353921 -7.90311e-16)
(2635.88 -0.405924 6.32473e-19)
(2635.87 -0.412311 8.5936e-16)
(2635.87 -0.418165 -5.12071e-18)
(2635.88 -0.418085 -1.36352e-15)
)
;

boundaryField
{
    inlet
    {
        type            calculated;
        value           uniform (0 0 0);
    }
    outlet2
    {
        type            calculated;
        value           uniform (0 0 0);
    }
    outlet1
    {
        type            calculated;
        value           nonuniform List<vector> 0();
    }
    wall
    {
        type            calculated;
        value           uniform (0 0 0);
    }
    symmetryBottom
    {
        type            symmetry;
    }
    symmetryZ0
    {
        type            symmetry;
    }
    symmetryZ05
    {
        type            symmetry;
    }
    procBoundary1to0
    {
        type            processor;
        value           uniform (0 0 0);
    }
}


// ************************************************************************* //
