/*--------------------------------*- C++ -*----------------------------------*\
| =========                 |                                                 |
| \\      /  F ield         | OpenFOAM: The Open Source CFD Toolbox           |
|  \\    /   O peration     | Version:  2412                                  |
|   \\  /    A nd           | Website:  www.openfoam.com                      |
|    \\/     M anipulation  |                                                 |
\*---------------------------------------------------------------------------*/
FoamFile
{
    version     2.0;
    format      ascii;
    arch        "LSB;label=32;scalar=64";
    class       volVectorField;
    location    "6e-07";
    object      U;
}
// * * * * * * * * * * * * * * * * * * * * * * * * * * * * * * * * * * * * * //

dimensions      [0 0 0 0 0 0 0];

internalField   nonuniform List<vector> 
84
(
(2636.27 0.637551 7.3384e-16)
(2635.65 0.649432 -7.56956e-16)
(2635.65 0.659005 -1.69911e-15)
(2635.65 0.668918 8.09253e-16)
(2635.65 0.679132 1.23669e-17)
(2635.65 0.689663 9.24899e-17)
(2635.65 0.700526 1.60686e-15)
(2635.66 0.700396 3.34017e-16)
(2636.47 -0.632704 5.75245e-16)
(2635.85 -0.648163 -6.52723e-16)
(2635.87 -0.657672 -2.10793e-15)
(2635.87 -0.66757 3.94657e-17)
(2635.87 -0.677769 -3.5235e-15)
(2635.87 -0.688285 3.70664e-16)
(2635.87 -0.699133 2.97742e-15)
(2635.88 -0.698941 7.68969e-16)
(2636.46 -0.626953 -3.05661e-15)
(2635.85 -0.651883 4.72485e-16)
(2635.86 -0.657764 1.05969e-15)
(2635.86 -0.66769 -2.00943e-17)
(2635.86 -0.677893 -1.36727e-17)
(2635.86 -0.688413 1.47418e-15)
(2635.86 -0.699265 -1.12975e-15)
(2635.87 -0.699072 -1.43393e-15)
(2636.46 -0.637186 -3.11367e-15)
(2635.84 -0.658026 1.44403e-15)
(2635.85 -0.667809 -2.29797e-17)
(2635.85 -0.678017 -3.35167e-15)
(2635.85 -0.68854 2.99475e-15)
(2635.85 -0.699396 7.95187e-16)
(2635.86 -0.699204 -1.14916e-15)
(2636.45 -0.642293 -1.72251e-15)
(2635.83 -0.658107 -7.04658e-16)
(2635.84 -0.667916 6.14805e-18)
(2635.84 -0.678128 1.23839e-18)
(2635.84 -0.688655 -9.97552e-16)
(2635.84 -0.699515 8.70106e-16)
(2635.85 -0.699323 2.27702e-15)
(2636.44 -0.609454 -1.10063e-15)
(2635.81 -0.624225 1.78498e-15)
(2635.83 -0.633545 -1.44606e-17)
(2635.83 -0.643245 2.19426e-15)
(2635.83 -0.653245 -1.92687e-15)
(2635.83 -0.663562 1.52456e-15)
(2635.84 -0.663384 -3.47357e-15)
(2636.42 -0.49197 -4.33884e-20)
(2635.8 -0.50349 1.71919e-15)
(2635.81 -0.511014 -1.4377e-17)
(2635.81 -0.51884 -5.61176e-18)
(2635.81 -0.526908 1.91663e-15)
(2635.81 -0.535232 3.01958e-16)
(2635.82 -0.535095 1.9607e-15)
(2636.41 -0.410206 -1.94654e-18)
(2635.78 -0.427185 -3.95238e-19)
(2635.79 -0.430659 -5.59067e-18)
(2635.79 -0.437279 -2.76428e-18)
(2635.79 -0.444087 1.13192e-18)
(2635.79 -0.451109 -1.07282e-18)
(2635.8 -0.451001 -1.47145e-15)
(2636.4 -0.38084 3.47382e-15)
(2635.77 -0.392035 -3.00982e-17)
(2635.78 -0.397985 -3.6101e-15)
(2635.78 -0.404178 -1.50468e-15)
(2635.78 -0.410565 1.74017e-15)
(2635.79 -0.410473 -1.01149e-18)
(2636.39 -0.386743 -1.41172e-15)
(2635.77 -0.394873 1.22813e-17)
(2635.78 -0.40086 -1.83509e-15)
(2635.78 -0.407074 1.82329e-15)
(2635.78 -0.413483 3.38677e-15)
(2635.79 -0.413394 7.81928e-20)
(2636.39 -0.431439 -1.76756e-15)
(2635.77 -0.44257 1.49954e-17)
(2635.78 -0.449276 6.19558e-19)
(2635.78 -0.45625 3.34866e-15)
(2635.78 -0.463445 3.69928e-15)
(2635.79 -0.463345 4.89643e-16)
(2636.38 -0.00631802 -1.33593e-17)
(2635.76 -0.530014 6.2094e-20)
(2635.77 -0.531816 -1.53687e-22)
(2635.77 -0.539981 2.20128e-15)
(2635.77 -0.548364 -1.88501e-17)
(2635.77 -0.557012 8.56885e-20)
(2635.78 -0.556904 -1.74238e-15)
)
;

boundaryField
{
    inlet
    {
        type            calculated;
        value           nonuniform List<vector> 0();
    }
    outlet2
    {
        type            calculated;
        value           uniform (0 0 0);
    }
    outlet1
    {
        type            calculated;
        value           uniform (0 0 0);
    }
    wall
    {
        type            calculated;
        value           uniform (0 0 0);
    }
    symmetryBottom
    {
        type            symmetry;
    }
    symmetryZ0
    {
        type            symmetry;
    }
    symmetryZ05
    {
        type            symmetry;
    }
    procBoundary0to1
    {
        type            processor;
        value           uniform (0 0 0);
    }
}


// ************************************************************************* //
