/*--------------------------------*- C++ -*----------------------------------*\
| =========                 |                                                 |
| \\      /  F ield         | OpenFOAM: The Open Source CFD Toolbox           |
|  \\    /   O peration     | Version:  2412                                  |
|   \\  /    A nd           | Website:  www.openfoam.com                      |
|    \\/     M anipulation  |                                                 |
\*---------------------------------------------------------------------------*/
FoamFile
{
    version     2.0;
    format      ascii;
    arch        "LSB;label=32;scalar=64";
    class       volVectorField;
    location    "7.2e-06";
    object      U;
}
// * * * * * * * * * * * * * * * * * * * * * * * * * * * * * * * * * * * * * //

dimensions      [0 0 0 0 0 0 0];

internalField   nonuniform List<vector> 
84
(
(2636.39 -0.0274172 0)
(2557.62 -0.186766 0)
(2623.72 -0.0596362 -1.1549e-14)
(2636.39 -5.41612 0)
(2557.72 -9.63296 0)
(2623.72 -7.05156 -1.14605e-14)
(2636.39 -5.39041 0)
(2557.71 -9.57931 0)
(2623.72 -7.0155 1.55428e-14)
(2636.39 -5.39041 0)
(2557.71 -9.57929 0)
(2623.72 -7.01549 -2.14503e-14)
(2636.39 -5.39041 0)
(2557.71 -9.57929 0)
(2623.72 -7.01549 -3.27418e-14)
(2636.39 -5.39041 0)
(2557.71 -9.57929 0)
(2623.72 -7.01549 2.11172e-14)
(2636.39 -5.39041 0)
(2557.71 -9.57929 0)
(2623.72 -7.01549 -2.43544e-14)
(2636.39 -5.39041 0)
(2557.71 -9.57929 0)
(2623.72 -7.01549 -2.74829e-14)
(2636.39 -5.39041 0)
(2557.71 -9.57929 0)
(2623.72 -7.01549 1.1615e-14)
(2636.39 -5.39041 0)
(2557.71 -9.57928 0)
(2623.72 -7.01549 -2.43659e-14)
(2636.39 -5.39041 0)
(2557.71 -9.57797 0)
(2623.72 -7.01528 -6.45536e-14)
(2636.39 -5.39104 0)
(2557.69 -9.45877 0)
(2623.72 -6.99649 0)
(2629.36 7.60403 9.6895e-16)
(2627.38 7.09647 8.83388e-15)
(2627.8 7.13896 9.22046e-16)
(2631.93 -7.33868 8.74727e-16)
(2629.77 -7.45526 9.12752e-15)
(2630.21 -7.43812 -2.83437e-16)
(2631.82 -7.34194 -1.22673e-15)
(2629.67 -7.45645 -4.40485e-15)
(2630.1 -7.42972 -1.34464e-14)
(2631.7 -7.34352 1.61239e-15)
(2629.57 -7.45781 -2.87698e-16)
(2629.89 -7.56101 2.37171e-17)
(2628.82 0.718378 1.19869e-14)
(2631.59 -7.34792 -1.649e-15)
(2629.47 -7.46173 7.17896e-17)
(2629.78 -7.5651 -1.39563e-16)
(2629.89 -7.55076 1.13357e-14)
(2631.44 -7.08832 -1.60818e-15)
(2629.33 -7.22246 -8.90488e-15)
(2629.64 -7.32296 8.07859e-16)
(2629.74 -7.30919 9.93001e-15)
(2631.17 -5.60056 1.88579e-15)
(2629.05 -5.8257 -2.52323e-16)
(2629.36 -5.89576 2.2884e-17)
(2629.46 -5.88528 -7.85757e-17)
(2630.99 -4.70756 2.29493e-15)
(2628.85 -4.98546 -9.25761e-15)
(2629.16 -5.03893 1.02178e-14)
(2629.27 -5.02269 1.64082e-16)
(2630.76 -4.10768 -9.25348e-16)
(2628.51 -4.42229 -1.19395e-14)
(2628.84 -4.46152 -1.13383e-14)
(2628.81 -4.5276 1.32948e-14)
(2628.79 0.751728 7.73088e-14)
(2630.94 -3.97499 2.01236e-15)
(2628.97 -4.29974 -1.22902e-14)
(2629.25 -4.33312 1.02458e-14)
(2629.23 -4.39501 1.64544e-14)
(2629.37 -4.42802 1.1467e-14)
(2630.84 -4.61639 5.13912e-15)
(2628.81 -4.8974 -4.54873e-16)
(2629.1 -4.94552 4.29562e-17)
(2629.08 -5.02459 -3.33342e-17)
(2629.25 -5.48899 -1.21334e-14)
(2630.76 -5.64835 9.37755e-18)
(2628.74 -5.85724 1.22546e-14)
(2629.03 -5.92658 -1.57073e-15)
(2629.14 -5.91239 -1.67983e-14)
)
;

boundaryField
{
    inlet
    {
        type            calculated;
        value           uniform (0 0 0);
    }
    outlet2
    {
        type            calculated;
        value           uniform (0 0 0);
    }
    outlet1
    {
        type            calculated;
        value           nonuniform List<vector> 0();
    }
    wall
    {
        type            calculated;
        value           uniform (0 0 0);
    }
    symmetryBottom
    {
        type            symmetry;
    }
    symmetryZ0
    {
        type            symmetry;
    }
    symmetryZ05
    {
        type            symmetry;
    }
    procBoundary1to0
    {
        type            processor;
        value           uniform (0 0 0);
    }
}


// ************************************************************************* //
