/*--------------------------------*- C++ -*----------------------------------*\
| =========                 |                                                 |
| \\      /  F ield         | OpenFOAM: The Open Source CFD Toolbox           |
|  \\    /   O peration     | Version:  2412                                  |
|   \\  /    A nd           | Website:  www.openfoam.com                      |
|    \\/     M anipulation  |                                                 |
\*---------------------------------------------------------------------------*/
FoamFile
{
    version     2.0;
    format      ascii;
    arch        "LSB;label=32;scalar=64";
    class       volScalarField;
    location    "5.7e-06";
    object      E;
}
// * * * * * * * * * * * * * * * * * * * * * * * * * * * * * * * * * * * * * //

dimensions      [0 0 0 0 0 0 0];

internalField   nonuniform List<scalar> 
84
(
97.2401
65.8929
68.8201
68.6439
68.6557
68.6592
68.6632
69.1082
102.443
69.5064
72.6389
72.5121
72.5843
72.6497
72.7176
73.1823
101.476
69.5301
72.1896
72.1077
72.17
72.2287
72.2896
72.7522
101.077
68.8099
71.8855
71.7497
71.8104
71.864
72.3246
100.882
68.4051
71.4818
71.3394
71.3934
71.4402
71.8988
100.335
68.0244
71.0789
70.9311
70.9785
71.0183
71.475
99.7992
67.6541
70.6851
70.5321
70.5729
70.6061
71.0608
99.0545
67.5154
70.2752
70.145
70.1777
70.2046
70.6574
98.6231
66.984
69.9637
69.8018
69.831
70.2817
98.1519
66.5099
69.4761
69.3075
69.3292
69.7773
97.5289
66.161
69.0921
68.9191
68.9342
69.3805
96.5175
65.9112
68.6973
68.5317
68.5399
68.5406
68.9853
)
;

boundaryField
{
    inlet
    {
        type            calculated;
        value           nonuniform List<scalar> 0();
    }
    outlet2
    {
        type            calculated;
        value           uniform 0;
    }
    outlet1
    {
        type            calculated;
        value           uniform 0;
    }
    wall
    {
        type            calculated;
        value           uniform 0;
    }
    symmetryBottom
    {
        type            symmetry;
    }
    symmetryZ0
    {
        type            symmetry;
    }
    symmetryZ05
    {
        type            symmetry;
    }
    procBoundary0to1
    {
        type            processor;
        value           uniform 0;
    }
}


// ************************************************************************* //
