/*--------------------------------*- C++ -*----------------------------------*\
| =========                 |                                                 |
| \\      /  F ield         | OpenFOAM: The Open Source CFD Toolbox           |
|  \\    /   O peration     | Version:  2412                                  |
|   \\  /    A nd           | Website:  www.openfoam.com                      |
|    \\/     M anipulation  |                                                 |
\*---------------------------------------------------------------------------*/
FoamFile
{
    version     2.0;
    format      ascii;
    arch        "LSB;label=32;scalar=64";
    class       volScalarField;
    location    "5.7e-06";
    object      rho_dof0;
}
// * * * * * * * * * * * * * * * * * * * * * * * * * * * * * * * * * * * * * //

dimensions      [0 0 0 0 0 0 0];

internalField   nonuniform List<scalar> 
84
(
2.7518e-05
1.87381e-05
1.95486e-05
1.95006e-05
1.9504e-05
1.95051e-05
1.95064e-05
1.96312e-05
2.89584e-05
1.97421e-05
2.06088e-05
2.05746e-05
2.05947e-05
2.06131e-05
2.06321e-05
2.07623e-05
2.8689e-05
1.97471e-05
2.04832e-05
2.04611e-05
2.04786e-05
2.0495e-05
2.05121e-05
2.06417e-05
2.85775e-05
1.95465e-05
2.03976e-05
2.03608e-05
2.03777e-05
2.03928e-05
2.05218e-05
2.85221e-05
1.9433e-05
2.02843e-05
2.02457e-05
2.02608e-05
2.02739e-05
2.04024e-05
2.83685e-05
1.93257e-05
2.01709e-05
2.01307e-05
2.01439e-05
2.01551e-05
2.0283e-05
2.82144e-05
1.92193e-05
2.00577e-05
2.0016e-05
2.00273e-05
2.00366e-05
2.0164e-05
2.80017e-05
1.91765e-05
1.99395e-05
1.9904e-05
1.9913e-05
1.99204e-05
2.00472e-05
2.78603e-05
1.90119e-05
1.98349e-05
1.97904e-05
1.97981e-05
1.99243e-05
2.7776e-05
1.89115e-05
1.97333e-05
1.96874e-05
1.96936e-05
1.98192e-05
2.75895e-05
1.88059e-05
1.96174e-05
1.95701e-05
1.95743e-05
1.96994e-05
2.73021e-05
1.87341e-05
1.95046e-05
1.94594e-05
1.94616e-05
1.94618e-05
1.95865e-05
)
;

boundaryField
{
    inlet
    {
        type            calculated;
        value           nonuniform List<scalar> 0();
    }
    outlet2
    {
        type            calculated;
        value           uniform 2.81085e-05;
    }
    outlet1
    {
        type            calculated;
        value           uniform 2.81085e-05;
    }
    wall
    {
        type            calculated;
        value           uniform 2.81085e-05;
    }
    symmetryBottom
    {
        type            symmetry;
    }
    symmetryZ0
    {
        type            symmetry;
    }
    symmetryZ05
    {
        type            symmetry;
    }
    procBoundary0to1
    {
        type            processor;
        value           uniform 2.81085e-05;
    }
}


// ************************************************************************* //
