/*--------------------------------*- C++ -*----------------------------------*\
| =========                 |                                                 |
| \\      /  F ield         | OpenFOAM: The Open Source CFD Toolbox           |
|  \\    /   O peration     | Version:  2412                                  |
|   \\  /    A nd           | Website:  www.openfoam.com                      |
|    \\/     M anipulation  |                                                 |
\*---------------------------------------------------------------------------*/
FoamFile
{
    version     2.0;
    format      ascii;
    arch        "LSB;label=32;scalar=64";
    class       volVectorField;
    location    "8e-07";
    object      U;
}
// * * * * * * * * * * * * * * * * * * * * * * * * * * * * * * * * * * * * * //

dimensions      [0 0 0 0 0 0 0];

internalField   nonuniform List<vector> 
84
(
(2636.23 0.849 9.27552e-16)
(2635.39 0.864728 -9.71682e-16)
(2635.41 0.877439 -2.31948e-15)
(2635.41 0.890621 1.09643e-15)
(2635.4 0.904204 1.07412e-17)
(2635.4 0.918207 1.23945e-16)
(2635.4 0.932651 2.14476e-15)
(2635.41 0.932433 4.33463e-16)
(2636.5 -0.843503 8.09158e-16)
(2635.67 -0.864365 -8.63488e-16)
(2635.69 -0.876978 -2.83071e-15)
(2635.69 -0.890177 6.21014e-17)
(2635.7 -0.903777 -4.75495e-15)
(2635.7 -0.9178 5.14636e-16)
(2635.7 -0.932264 3.98183e-15)
(2635.71 -0.931956 1.05407e-15)
(2636.48 -0.832619 -3.99986e-15)
(2635.66 -0.872152 6.47732e-16)
(2635.68 -0.877053 1.42385e-15)
(2635.68 -0.890341 -3.15891e-17)
(2635.68 -0.903946 -2.01116e-17)
(2635.68 -0.917973 1.96613e-15)
(2635.69 -0.932443 -1.47026e-15)
(2635.7 -0.932136 -2.00726e-15)
(2636.47 -0.84693 -4.09893e-15)
(2635.65 -0.877554 1.93918e-15)
(2635.67 -0.890502 -3.71929e-17)
(2635.67 -0.904114 -4.48929e-15)
(2635.67 -0.918147 4.00562e-15)
(2635.67 -0.932623 1.0019e-15)
(2635.69 -0.932315 -1.49391e-15)
(2636.46 -0.856313 -2.28412e-15)
(2635.63 -0.877641 -9.56735e-16)
(2635.66 -0.890659 1.11456e-17)
(2635.66 -0.904277 2.60378e-18)
(2635.66 -0.918316 -1.37841e-15)
(2635.66 -0.932797 1.1574e-15)
(2635.67 -0.93249 3.01526e-15)
(2636.45 -0.813065 -1.4271e-15)
(2635.62 -0.832955 2.37296e-15)
(2635.64 -0.845343 -2.73551e-17)
(2635.64 -0.858295 2.95181e-15)
(2635.64 -0.871649 -2.4929e-15)
(2635.64 -0.885424 2.09582e-15)
(2635.66 -0.885139 -4.66752e-15)
(2636.42 -0.65629 -8.01318e-20)
(2635.59 -0.671795 2.3483e-15)
(2635.61 -0.681796 -2.68196e-17)
(2635.61 -0.692244 -7.41824e-18)
(2635.61 -0.703016 2.52463e-15)
(2635.61 -0.714128 3.9806e-16)
(2635.63 -0.713908 2.64529e-15)
(2636.41 -0.544735 -8.38849e-19)
(2635.58 -0.572427 3.87499e-19)
(2635.6 -0.574753 -7.4959e-18)
(2635.6 -0.583642 -4.60969e-18)
(2635.6 -0.592736 1.14459e-18)
(2635.6 -0.60212 -9.78079e-19)
(2635.61 -0.601943 -1.93094e-15)
(2636.4 -0.506361 4.67781e-15)
(2635.56 -0.522849 -5.65852e-17)
(2635.58 -0.530743 -4.80539e-15)
(2635.58 -0.539003 -2.02709e-15)
(2635.58 -0.547523 2.42245e-15)
(2635.6 -0.547371 -1.35747e-18)
(2636.39 -0.515138 -1.78982e-15)
(2635.56 -0.526005 2.27345e-17)
(2635.58 -0.53395 -2.38112e-15)
(2635.58 -0.54222 2.39045e-15)
(2635.58 -0.550749 4.55126e-15)
(2635.59 -0.550602 1.69914e-19)
(2636.39 -0.573449 -2.30395e-15)
(2635.55 -0.589876 2.81029e-17)
(2635.57 -0.598755 8.7957e-19)
(2635.57 -0.608047 4.45387e-15)
(2635.57 -0.61763 4.91056e-15)
(2635.59 -0.617465 6.05933e-16)
(2636.37 -0.0116792 -2.4675e-17)
(2635.55 -0.709563 1.72322e-19)
(2635.57 -0.708609 -7.1502e-22)
(2635.57 -0.719534 2.91049e-15)
(2635.57 -0.730699 -3.48499e-17)
(2635.57 -0.742216 2.35163e-19)
(2635.58 -0.742035 -2.42654e-15)
)
;

boundaryField
{
    inlet
    {
        type            calculated;
        value           nonuniform List<vector> 0();
    }
    outlet2
    {
        type            calculated;
        value           uniform (0 0 0);
    }
    outlet1
    {
        type            calculated;
        value           uniform (0 0 0);
    }
    wall
    {
        type            calculated;
        value           uniform (0 0 0);
    }
    symmetryBottom
    {
        type            symmetry;
    }
    symmetryZ0
    {
        type            symmetry;
    }
    symmetryZ05
    {
        type            symmetry;
    }
    procBoundary0to1
    {
        type            processor;
        value           uniform (0 0 0);
    }
}


// ************************************************************************* //
