/*--------------------------------*- C++ -*----------------------------------*\
| =========                 |                                                 |
| \\      /  F ield         | OpenFOAM: The Open Source CFD Toolbox           |
|  \\    /   O peration     | Version:  2412                                  |
|   \\  /    A nd           | Website:  www.openfoam.com                      |
|    \\/     M anipulation  |                                                 |
\*---------------------------------------------------------------------------*/
FoamFile
{
    version     2.0;
    format      ascii;
    arch        "LSB;label=32;scalar=64";
    class       volScalarField;
    location    "3.9e-06";
    object      rho;
}
// * * * * * * * * * * * * * * * * * * * * * * * * * * * * * * * * * * * * * //

dimensions      [0 0 0 0 0 0 0];

internalField   nonuniform List<scalar> 
84
(
2.81095e-05
1.31502e-05
1.5306e-05
2.81135e-05
1.31554e-05
1.53107e-05
2.81125e-05
1.31548e-05
1.531e-05
2.81125e-05
1.31548e-05
1.531e-05
2.81125e-05
1.31548e-05
1.531e-05
2.81125e-05
1.31548e-05
1.531e-05
2.81125e-05
1.31548e-05
1.531e-05
2.81125e-05
1.31548e-05
1.531e-05
2.81125e-05
1.31548e-05
1.531e-05
2.81125e-05
1.31548e-05
1.531e-05
2.81125e-05
1.31548e-05
1.531e-05
2.81125e-05
1.31536e-05
1.53092e-05
2.23406e-05
2.18569e-05
2.19601e-05
2.31488e-05
2.26192e-05
2.2727e-05
2.30642e-05
2.25393e-05
2.26461e-05
2.29798e-05
2.24596e-05
2.24915e-05
2.18158e-05
2.28956e-05
2.23801e-05
2.24106e-05
2.24951e-05
2.28114e-05
2.23008e-05
2.23298e-05
2.24141e-05
2.27274e-05
2.22215e-05
2.22491e-05
2.23332e-05
2.26444e-05
2.21432e-05
2.21695e-05
2.2253e-05
2.25588e-05
2.20625e-05
2.20873e-05
2.20902e-05
2.18405e-05
2.24808e-05
2.19889e-05
2.20124e-05
2.20142e-05
2.20983e-05
2.23965e-05
2.19094e-05
2.19315e-05
2.19323e-05
2.20308e-05
2.23151e-05
2.18325e-05
2.18532e-05
2.19361e-05
)
;

boundaryField
{
    inlet
    {
        type            calculated;
        value           uniform 0;
    }
    outlet2
    {
        type            calculated;
        value           uniform 0;
    }
    outlet1
    {
        type            calculated;
        value           nonuniform List<scalar> 0();
    }
    wall
    {
        type            calculated;
        value           uniform 0;
    }
    symmetryBottom
    {
        type            symmetry;
    }
    symmetryZ0
    {
        type            symmetry;
    }
    symmetryZ05
    {
        type            symmetry;
    }
    procBoundary1to0
    {
        type            processor;
        value           uniform 0;
    }
}


// ************************************************************************* //
