/*--------------------------------*- C++ -*----------------------------------*\
| =========                 |                                                 |
| \\      /  F ield         | OpenFOAM: The Open Source CFD Toolbox           |
|  \\    /   O peration     | Version:  2412                                  |
|   \\  /    A nd           | Website:  www.openfoam.com                      |
|    \\/     M anipulation  |                                                 |
\*---------------------------------------------------------------------------*/
FoamFile
{
    version     2.0;
    format      ascii;
    arch        "LSB;label=32;scalar=64";
    class       volScalarField;
    location    "3.9e-06";
    object      T;
}
// * * * * * * * * * * * * * * * * * * * * * * * * * * * * * * * * * * * * * //

dimensions      [0 0 0 0 0 0 0];

internalField   nonuniform List<scalar> 
84
(
200.005
199.756
200.05
199.987
199.717
200.018
199.983
199.711
200.013
199.983
199.711
200.013
199.983
199.711
200.013
199.983
199.711
200.013
199.983
199.711
200.013
199.983
199.711
200.013
199.983
199.711
200.013
199.983
199.711
200.013
199.983
199.711
200.013
199.983
199.699
200.006
202.415
202.318
202.323
200.013
199.996
199.999
200.013
199.996
199.999
200.013
199.996
199.999
200.011
200.015
199.998
200.001
200.001
200.424
200.391
200.399
200.399
202.162
202.07
202.106
202.104
203.798
203.65
203.713
203.709
210.423
210.012
210.192
210.348
199.382
195.95
196.061
195.998
195.938
195.836
199.044
199.06
199.047
199.033
199.079
199.607
199.604
199.6
199.6
)
;

boundaryField
{
    inlet
    {
        type            calculated;
        value           uniform 0;
    }
    outlet2
    {
        type            calculated;
        value           uniform 0;
    }
    outlet1
    {
        type            calculated;
        value           nonuniform List<scalar> 0();
    }
    wall
    {
        type            calculated;
        value           uniform 0;
    }
    symmetryBottom
    {
        type            symmetry;
    }
    symmetryZ0
    {
        type            symmetry;
    }
    symmetryZ05
    {
        type            symmetry;
    }
    procBoundary1to0
    {
        type            processor;
        value           uniform 0;
    }
}


// ************************************************************************* //
