/*--------------------------------*- C++ -*----------------------------------*\
| =========                 |                                                 |
| \\      /  F ield         | OpenFOAM: The Open Source CFD Toolbox           |
|  \\    /   O peration     | Version:  2412                                  |
|   \\  /    A nd           | Website:  www.openfoam.com                      |
|    \\/     M anipulation  |                                                 |
\*---------------------------------------------------------------------------*/
FoamFile
{
    version     2.0;
    format      ascii;
    arch        "LSB;label=32;scalar=64";
    class       volScalarField;
    location    "9.7e-06";
    object      E_dof0;
}
// * * * * * * * * * * * * * * * * * * * * * * * * * * * * * * * * * * * * * //

dimensions      [0 0 0 0 0 0 0];

internalField   nonuniform List<scalar> 
84
(
120.489
4.64854
15.4284
120.533
4.74216
14.6895
120.561
4.73384
14.7842
120.562
4.7225
14.8805
120.564
4.71119
14.9767
120.565
4.69992
15.0723
120.566
4.68871
15.1673
120.567
4.67754
15.2617
120.568
4.66642
15.3557
120.569
4.65535
15.449
120.57
4.64429
15.5418
120.572
4.63313
15.634
57.5165
53.6582
50.635
61.836
57.5426
54.2892
61.346
57.1003
53.9345
60.7897
56.4196
57.3461
47.738
60.231
55.9417
56.4061
52.8987
59.6779
55.4472
55.8901
52.4987
59.1298
54.9566
55.386
52.0292
58.5864
54.4704
54.8853
51.5892
58.0477
53.9933
54.2362
54.5998
48.562
57.5139
53.5151
53.7574
53.9098
50.6358
56.9847
53.0414
53.2735
53.4101
50.248
56.4607
52.568
52.9295
49.8153
)
;

boundaryField
{
    inlet
    {
        type            calculated;
        value           uniform 99.4306;
    }
    outlet2
    {
        type            calculated;
        value           uniform 99.4306;
    }
    outlet1
    {
        type            calculated;
        value           nonuniform List<scalar> 0();
    }
    wall
    {
        type            calculated;
        value           uniform 99.4306;
    }
    symmetryBottom
    {
        type            symmetry;
    }
    symmetryZ0
    {
        type            symmetry;
    }
    symmetryZ05
    {
        type            symmetry;
    }
    procBoundary1to0
    {
        type            processor;
        value           uniform 99.4306;
    }
}


// ************************************************************************* //
