/*--------------------------------*- C++ -*----------------------------------*\
| =========                 |                                                 |
| \\      /  F ield         | OpenFOAM: The Open Source CFD Toolbox           |
|  \\    /   O peration     | Version:  2412                                  |
|   \\  /    A nd           | Website:  www.openfoam.com                      |
|    \\/     M anipulation  |                                                 |
\*---------------------------------------------------------------------------*/
FoamFile
{
    version     2.0;
    format      ascii;
    arch        "LSB;label=32;scalar=64";
    class       volScalarField;
    location    "9.7e-06";
    object      rho_dof0;
}
// * * * * * * * * * * * * * * * * * * * * * * * * * * * * * * * * * * * * * //

dimensions      [0 0 0 0 0 0 0];

internalField   nonuniform List<scalar> 
84
(
3.39441e-05
1.50372e-06
4.48542e-06
3.39565e-05
1.52968e-06
4.27981e-06
3.39643e-05
1.52747e-06
4.30617e-06
3.39646e-05
1.52435e-06
4.33291e-06
3.39649e-05
1.52124e-06
4.35964e-06
3.39652e-05
1.51814e-06
4.38619e-06
3.39655e-05
1.51506e-06
4.41259e-06
3.39658e-05
1.51199e-06
4.43883e-06
3.39661e-05
1.50894e-06
4.46493e-06
3.39664e-05
1.50589e-06
4.49087e-06
3.39668e-05
1.50285e-06
4.51665e-06
3.39672e-05
1.49979e-06
4.54227e-06
1.63536e-05
1.52801e-05
1.44449e-05
1.7566e-05
1.6372e-05
1.54737e-05
1.74283e-05
1.62476e-05
1.53732e-05
1.72721e-05
1.60576e-05
1.63133e-05
1.36346e-05
1.71152e-05
1.5923e-05
1.60506e-05
1.50822e-05
1.696e-05
1.57839e-05
1.59055e-05
1.49692e-05
1.6806e-05
1.56459e-05
1.57638e-05
1.48369e-05
1.66535e-05
1.55091e-05
1.56229e-05
1.47127e-05
1.65022e-05
1.53748e-05
1.54417e-05
1.5542e-05
1.38628e-05
1.63522e-05
1.52402e-05
1.53069e-05
1.53486e-05
1.44442e-05
1.62036e-05
1.51069e-05
1.51707e-05
1.52081e-05
1.43346e-05
1.60564e-05
1.49737e-05
1.50727e-05
1.42125e-05
)
;

boundaryField
{
    inlet
    {
        type            calculated;
        value           uniform 2.81085e-05;
    }
    outlet2
    {
        type            calculated;
        value           uniform 2.81085e-05;
    }
    outlet1
    {
        type            calculated;
        value           nonuniform List<scalar> 0();
    }
    wall
    {
        type            calculated;
        value           uniform 2.81085e-05;
    }
    symmetryBottom
    {
        type            symmetry;
    }
    symmetryZ0
    {
        type            symmetry;
    }
    symmetryZ05
    {
        type            symmetry;
    }
    procBoundary1to0
    {
        type            processor;
        value           uniform 2.81085e-05;
    }
}


// ************************************************************************* //
