/*--------------------------------*- C++ -*----------------------------------*\
| =========                 |                                                 |
| \\      /  F ield         | OpenFOAM: The Open Source CFD Toolbox           |
|  \\    /   O peration     | Version:  2412                                  |
|   \\  /    A nd           | Website:  www.openfoam.com                      |
|    \\/     M anipulation  |                                                 |
\*---------------------------------------------------------------------------*/
FoamFile
{
    version     2.0;
    format      ascii;
    arch        "LSB;label=32;scalar=64";
    class       volVectorField;
    location    "9.7e-06";
    object      rhoU;
}
// * * * * * * * * * * * * * * * * * * * * * * * * * * * * * * * * * * * * * //

dimensions      [0 0 0 0 0 0 0];

internalField   nonuniform List<vector> 
84
(
(0.089647 2.04299e-07 -4.13028e-21)
(0.00370925 -4.65898e-07 2.67061e-20)
(0.0116594 1.93352e-07 -1.22591e-19)
(0.0896798 -0.00027605 -4.37057e-21)
(0.00377847 -2.21424e-05 2.81397e-20)
(0.0111118 -4.29483e-05 -1.28047e-19)
(0.0897002 -0.000276113 5.7421e-21)
(0.00377245 -2.21805e-05 -3.68977e-20)
(0.0111818 -4.26867e-05 1.67052e-19)
(0.0897011 -0.000276126 -7.49894e-21)
(0.00376411 -2.21526e-05 4.82401e-20)
(0.0112529 -4.2937e-05 -2.20696e-19)
(0.0897019 -0.000276129 -1.32993e-20)
(0.00375579 -2.21231e-05 8.474e-20)
(0.011324 -4.3193e-05 -3.79198e-19)
(0.0897028 -0.000276131 7.28446e-21)
(0.00374751 -2.20938e-05 -4.65048e-20)
(0.0113946 -4.3446e-05 2.09925e-19)
(0.0897036 -0.000276134 -9.76797e-21)
(0.00373927 -2.20646e-05 6.2679e-20)
(0.0114648 -4.36975e-05 -2.83546e-19)
(0.0897044 -0.000276137 -1.13355e-20)
(0.00373106 -2.20355e-05 7.27185e-20)
(0.0115347 -4.39475e-05 -3.31592e-19)
(0.0897053 -0.00027614 4.2148e-21)
(0.00372289 -2.20066e-05 -2.69227e-20)
(0.0116041 -4.41961e-05 1.21292e-19)
(0.0897061 -0.000276143 -9.6585e-21)
(0.00371475 -2.19778e-05 6.26657e-20)
(0.0116731 -4.44432e-05 -2.88747e-19)
(0.0897069 -0.000276146 -2.50044e-20)
(0.00370662 -2.19489e-05 1.61362e-19)
(0.0117416 -4.46888e-05 -7.3737e-19)
(0.0897082 -0.000276396 9.6194e-24)
(0.00369842 -2.15157e-05 -1.73677e-22)
(0.0118097 -4.46316e-05 2.44968e-21)
(0.0429809 -3.30691e-06 -2.66516e-21)
(0.0401283 -3.11564e-06 1.98693e-19)
(0.0379007 -2.97893e-06 -2.97908e-20)
(0.0461957 -0.000170357 -2.12317e-21)
(0.0430216 -0.000161711 1.99761e-19)
(0.0406246 -0.000152039 -3.43779e-20)
(0.0458316 -0.000172248 -1.18433e-20)
(0.0426926 -0.000163353 -6.90039e-20)
(0.0403599 -0.000155917 -2.76211e-19)
(0.0454184 -0.000170804 2.31873e-20)
(0.0421885 -0.000160665 -3.78697e-21)
(0.042871 -0.000180739 -3.06875e-20)
(0.035759 5.32346e-05 3.93786e-19)
(0.0450034 -0.000169254 -5.22954e-20)
(0.041833 -0.000160014 2.4082e-21)
(0.0421743 -0.000164192 -2.95017e-20)
(0.0395903 -0.000149338 3.43386e-19)
(0.0445926 -0.000167742 -7.30978e-21)
(0.0414653 -0.000158658 -1.9792e-19)
(0.0417907 -0.000162361 -7.55808e-21)
(0.0392923 -0.00015194 2.33504e-19)
(0.0441854 -0.000166244 2.93475e-20)
(0.0411006 -0.000157292 -4.13722e-21)
(0.041416 -0.000160931 -1.66048e-21)
(0.038943 -0.000150673 -5.32418e-23)
(0.0437818 -0.000164759 5.19952e-20)
(0.040739 -0.00015594 -2.15011e-19)
(0.0410438 -0.000159431 2.08417e-19)
(0.0386152 -0.000151251 1.13376e-21)
(0.0433816 -0.000163286 1.06243e-20)
(0.0403842 -0.000154645 -2.66941e-19)
(0.0405629 -0.000156736 -2.82104e-19)
(0.0408306 -0.000175571 1.62418e-19)
(0.036367 5.20146e-05 1.83933e-18)
(0.042985 -0.000161827 5.45983e-20)
(0.0400286 -0.000153287 -3.01696e-19)
(0.0402067 -0.000156091 1.81921e-19)
(0.0403186 -0.000159181 4.38255e-19)
(0.0379061 -0.000147284 3.03067e-19)
(0.0425919 -0.000160379 7.94278e-20)
(0.0396763 -0.000151964 -5.11322e-21)
(0.0398469 -0.000154797 -1.35197e-23)
(0.0399471 -0.000156164 2.09181e-20)
(0.037617 -0.000165232 -2.40849e-19)
(0.0422025 -0.000158921 -2.33391e-20)
(0.0393243 -0.000150585 2.9234e-19)
(0.0395895 -0.000152951 1.43144e-20)
(0.0372947 -0.000164286 -4.72711e-19)
)
;

boundaryField
{
    inlet
    {
        type            calculated;
        value           uniform (0 0 0);
    }
    outlet2
    {
        type            calculated;
        value           uniform (0 0 0);
    }
    outlet1
    {
        type            calculated;
        value           nonuniform List<vector> 0();
    }
    wall
    {
        type            calculated;
        value           uniform (0 0 0);
    }
    symmetryBottom
    {
        type            symmetry;
    }
    symmetryZ0
    {
        type            symmetry;
    }
    symmetryZ05
    {
        type            symmetry;
    }
    procBoundary1to0
    {
        type            processor;
        value           uniform (0 0 0);
    }
}


// ************************************************************************* //
