/*--------------------------------*- C++ -*----------------------------------*\
| =========                 |                                                 |
| \\      /  F ield         | OpenFOAM: The Open Source CFD Toolbox           |
|  \\    /   O peration     | Version:  2412                                  |
|   \\  /    A nd           | Website:  www.openfoam.com                      |
|    \\/     M anipulation  |                                                 |
\*---------------------------------------------------------------------------*/
FoamFile
{
    version     2.0;
    format      ascii;
    arch        "LSB;label=32;scalar=64";
    class       volScalarField;
    location    "9.7e-06";
    object      T;
}
// * * * * * * * * * * * * * * * * * * * * * * * * * * * * * * * * * * * * * //

dimensions      [0 0 0 0 0 0 0];

internalField   nonuniform List<scalar> 
84
(
200.062
157.836
197.082
200.018
158.65
198.964
200.047
158.512
199.064
200.047
158.291
199.104
200.047
158.069
199.143
200.047
157.846
199.182
200.047
157.622
199.219
200.047
157.398
199.255
200.047
157.174
199.289
200.047
156.95
199.323
200.047
156.723
199.355
200.048
156.502
199.388
203.735
203.565
203.446
200.044
199.999
199.893
200.037
199.994
199.898
200.038
199.985
199.997
199.751
200.038
199.985
200.011
199.836
200.038
199.985
200.007
199.887
200.038
199.985
200.006
199.888
200.038
199.985
200.006
199.895
200.037
199.985
199.996
199.99
199.79
200.037
199.985
199.996
200.01
199.835
200.037
199.985
199.995
200.011
199.809
200.038
199.986
200.007
199.874
)
;

boundaryField
{
    inlet
    {
        type            calculated;
        value           uniform 0;
    }
    outlet2
    {
        type            calculated;
        value           uniform 0;
    }
    outlet1
    {
        type            calculated;
        value           nonuniform List<scalar> 0();
    }
    wall
    {
        type            calculated;
        value           uniform 0;
    }
    symmetryBottom
    {
        type            symmetry;
    }
    symmetryZ0
    {
        type            symmetry;
    }
    symmetryZ05
    {
        type            symmetry;
    }
    procBoundary1to0
    {
        type            processor;
        value           uniform 0;
    }
}


// ************************************************************************* //
