/*--------------------------------*- C++ -*----------------------------------*\
| =========                 |                                                 |
| \\      /  F ield         | OpenFOAM: The Open Source CFD Toolbox           |
|  \\    /   O peration     | Version:  2412                                  |
|   \\  /    A nd           | Website:  www.openfoam.com                      |
|    \\/     M anipulation  |                                                 |
\*---------------------------------------------------------------------------*/
FoamFile
{
    version     2.0;
    format      ascii;
    arch        "LSB;label=32;scalar=64";
    class       volScalarField;
    location    "1.1e-06";
    object      rho_dof0;
}
// * * * * * * * * * * * * * * * * * * * * * * * * * * * * * * * * * * * * * //

dimensions      [0 0 0 0 0 0 0];

internalField   nonuniform List<scalar> 
84
(
2.81117e-05
2.61542e-05
2.61866e-05
2.61864e-05
2.61866e-05
2.61867e-05
2.61868e-05
2.62168e-05
2.83942e-05
2.64227e-05
2.64593e-05
2.64632e-05
2.64676e-05
2.64721e-05
2.64768e-05
2.6507e-05
2.83606e-05
2.63985e-05
2.64312e-05
2.64348e-05
2.64387e-05
2.64427e-05
2.64469e-05
2.64771e-05
2.83361e-05
2.63708e-05
2.64066e-05
2.64098e-05
2.64134e-05
2.64171e-05
2.64473e-05
2.83108e-05
2.63428e-05
2.63782e-05
2.63809e-05
2.63841e-05
2.63873e-05
2.64175e-05
2.82815e-05
2.63148e-05
2.63498e-05
2.63521e-05
2.63548e-05
2.63576e-05
2.63877e-05
2.82521e-05
2.62869e-05
2.63215e-05
2.63233e-05
2.63256e-05
2.63279e-05
2.6358e-05
2.82203e-05
2.6261e-05
2.62931e-05
2.62946e-05
2.62964e-05
2.62983e-05
2.63283e-05
2.81929e-05
2.62323e-05
2.6266e-05
2.6267e-05
2.62684e-05
2.62985e-05
2.81659e-05
2.62045e-05
2.62378e-05
2.62384e-05
2.62393e-05
2.62693e-05
2.8135e-05
2.61762e-05
2.6209e-05
2.62091e-05
2.62096e-05
2.62396e-05
2.80762e-05
2.61493e-05
2.61802e-05
2.618e-05
2.618e-05
2.618e-05
2.621e-05
)
;

boundaryField
{
    inlet
    {
        type            calculated;
        value           nonuniform List<scalar> 0();
    }
    outlet2
    {
        type            calculated;
        value           uniform 2.81085e-05;
    }
    outlet1
    {
        type            calculated;
        value           uniform 2.81085e-05;
    }
    wall
    {
        type            calculated;
        value           uniform 2.81085e-05;
    }
    symmetryBottom
    {
        type            symmetry;
    }
    symmetryZ0
    {
        type            symmetry;
    }
    symmetryZ05
    {
        type            symmetry;
    }
    procBoundary0to1
    {
        type            processor;
        value           uniform 2.81085e-05;
    }
}


// ************************************************************************* //
