/*--------------------------------*- C++ -*----------------------------------*\
| =========                 |                                                 |
| \\      /  F ield         | OpenFOAM: The Open Source CFD Toolbox           |
|  \\    /   O peration     | Version:  2412                                  |
|   \\  /    A nd           | Website:  www.openfoam.com                      |
|    \\/     M anipulation  |                                                 |
\*---------------------------------------------------------------------------*/
FoamFile
{
    version     2.0;
    format      ascii;
    arch        "LSB;label=32;scalar=64";
    class       volVectorField;
    location    "1.1e-06";
    object      rhoU;
}
// * * * * * * * * * * * * * * * * * * * * * * * * * * * * * * * * * * * * * //

dimensions      [0 0 0 0 0 0 0];

internalField   nonuniform List<vector> 
84
(
(0.0741068 3.27538e-05 3.55304e-20)
(0.0689166 3.10356e-05 -3.54826e-20)
(0.0690029 3.15287e-05 -8.42446e-20)
(0.0690023 3.20013e-05 3.83353e-20)
(0.0690025 3.24885e-05 5.87949e-23)
(0.0690028 3.29909e-05 4.49969e-21)
(0.069003 3.3509e-05 7.56035e-20)
(0.0690825 3.3537e-05 1.54167e-20)
(0.0748622 -3.29268e-05 3.21108e-20)
(0.069634 -3.14097e-05 -3.27914e-20)
(0.0697317 -3.19082e-05 -1.02712e-19)
(0.0697421 -3.23933e-05 2.7808e-21)
(0.0697537 -3.28936e-05 -1.75054e-19)
(0.0697656 -3.34096e-05 1.98588e-20)
(0.069778 -3.39421e-05 1.44589e-19)
(0.069858 -3.39669e-05 3.73527e-20)
(0.074773 -3.2279e-05 -1.54626e-19)
(0.0695701 -3.18236e-05 2.38012e-20)
(0.0696572 -3.18725e-05 5.16511e-20)
(0.0696666 -3.23646e-05 -1.40874e-21)
(0.069677 -3.28639e-05 -8.36061e-22)
(0.0696878 -3.3379e-05 6.97869e-20)
(0.0696989 -3.39105e-05 -5.57514e-20)
(0.0697789 -3.39353e-05 -7.3625e-20)
(0.074708 -3.28479e-05 -1.56854e-19)
(0.0694964 -3.18288e-05 7.21922e-20)
(0.069592 -3.23359e-05 -1.71582e-21)
(0.0696004 -3.28343e-05 -1.62446e-19)
(0.06961 -3.33484e-05 1.45588e-19)
(0.0696198 -3.38789e-05 3.59879e-20)
(0.0696998 -3.39037e-05 -5.50185e-20)
(0.074641 -3.33302e-05 -8.68358e-20)
(0.0694221 -3.17961e-05 -3.31106e-20)
(0.0695166 -3.23076e-05 5.71397e-22)
(0.0695239 -3.2805e-05 1.47069e-22)
(0.0695322 -3.33183e-05 -4.96246e-20)
(0.0695409 -3.38479e-05 4.00861e-20)
(0.0696208 -3.38726e-05 1.08978e-19)
(0.074563 -3.16457e-05 -5.33284e-20)
(0.0693479 -3.0173e-05 8.70172e-20)
(0.0694412 -3.06597e-05 -1.42649e-21)
(0.0694473 -3.11328e-05 1.06975e-19)
(0.0694544 -3.16209e-05 -9.16673e-20)
(0.0694618 -3.21246e-05 7.55846e-20)
(0.0695416 -3.21484e-05 -1.69579e-19)
(0.0744847 -2.55145e-05 -4.3533e-24)
(0.0692734 -2.43069e-05 8.71263e-20)
(0.0693655 -2.4699e-05 -1.40691e-21)
(0.0693704 -2.50797e-05 -2.62637e-22)
(0.0693764 -2.54725e-05 9.17316e-20)
(0.0693825 -2.58778e-05 1.71102e-20)
(0.0694623 -2.58973e-05 9.46347e-20)
(0.0744002 -2.10114e-05 6.63611e-23)
(0.0692046 -2.08297e-05 6.65757e-23)
(0.0692903 -2.08074e-05 -2.73812e-22)
(0.0692941 -2.11346e-05 -2.17738e-22)
(0.0692989 -2.14659e-05 2.10518e-23)
(0.0693038 -2.18078e-05 -8.44791e-24)
(0.0693835 -2.18246e-05 -6.95289e-20)
(0.0743273 -1.95476e-05 1.81738e-19)
(0.0691285 -1.88666e-05 -2.9684e-21)
(0.0692182 -1.91732e-05 -1.75822e-19)
(0.0692209 -1.94725e-05 -7.24763e-20)
(0.0692246 -1.97814e-05 9.13104e-20)
(0.0693043 -1.9797e-05 -4.96007e-23)
(0.0742561 -1.99202e-05 -6.75354e-20)
(0.0690552 -1.89267e-05 1.14672e-21)
(0.0691438 -1.92353e-05 -8.73145e-20)
(0.0691454 -1.95333e-05 8.72038e-20)
(0.0691479 -1.98408e-05 1.63957e-19)
(0.0692275 -1.98566e-05 9.57089e-24)
(0.0741744 -2.20796e-05 -8.94569e-20)
(0.0689802 -2.12213e-05 1.4579e-21)
(0.0690676 -2.15633e-05 3.22882e-23)
(0.069068 -2.18979e-05 1.61218e-19)
(0.0690692 -2.22432e-05 1.77113e-19)
(0.0691488 -2.2261e-05 2.06147e-20)
(0.0740189 -6.34923e-07 -1.34743e-21)
(0.0689092 -2.56725e-05 1.33323e-23)
(0.0689917 -2.54833e-05 -8.80043e-26)
(0.068991 -2.58798e-05 1.05426e-19)
(0.068991 -2.6281e-05 -1.7879e-21)
(0.068991 -2.6695e-05 1.79207e-23)
(0.0690705 -2.67169e-05 -8.84034e-20)
)
;

boundaryField
{
    inlet
    {
        type            calculated;
        value           nonuniform List<vector> 0();
    }
    outlet2
    {
        type            calculated;
        value           uniform (0 0 0);
    }
    outlet1
    {
        type            calculated;
        value           uniform (0 0 0);
    }
    wall
    {
        type            calculated;
        value           uniform (0 0 0);
    }
    symmetryBottom
    {
        type            symmetry;
    }
    symmetryZ0
    {
        type            symmetry;
    }
    symmetryZ05
    {
        type            symmetry;
    }
    procBoundary0to1
    {
        type            processor;
        value           uniform (0 0 0);
    }
}


// ************************************************************************* //
