/*--------------------------------*- C++ -*----------------------------------*\
| =========                 |                                                 |
| \\      /  F ield         | OpenFOAM: The Open Source CFD Toolbox           |
|  \\    /   O peration     | Version:  2412                                  |
|   \\  /    A nd           | Website:  www.openfoam.com                      |
|    \\/     M anipulation  |                                                 |
\*---------------------------------------------------------------------------*/
FoamFile
{
    version     2.0;
    format      ascii;
    arch        "LSB;label=32;scalar=64";
    class       volScalarField;
    location    "1.1e-06";
    object      T;
}
// * * * * * * * * * * * * * * * * * * * * * * * * * * * * * * * * * * * * * //

dimensions      [0 0 0 0 0 0 0];

internalField   nonuniform List<scalar> 
84
(
200.668
200.682
200.693
200.704
200.715
200.726
200.737
200.737
199.999
199.999
200
200
200
200
200
200
199.998
199.999
200
200
200
200
200
200
199.999
199.999
200
200
200
200
200
199.999
199.999
200
200
200
200
200
200.129
200.133
200.136
200.138
200.14
200.142
200.142
200.604
200.622
200.632
200.641
200.651
200.662
200.661
201.045
201.082
201.097
201.114
201.131
201.149
201.149
202.757
202.885
202.929
202.975
203.023
203.021
198.859
198.828
198.812
198.793
198.774
198.774
199.725
199.721
199.718
199.713
199.709
199.709
199.994
199.884
199.884
199.882
199.88
199.878
199.878
)
;

boundaryField
{
    inlet
    {
        type            calculated;
        value           nonuniform List<scalar> 0();
    }
    outlet2
    {
        type            calculated;
        value           uniform 0;
    }
    outlet1
    {
        type            calculated;
        value           uniform 0;
    }
    wall
    {
        type            calculated;
        value           uniform 0;
    }
    symmetryBottom
    {
        type            symmetry;
    }
    symmetryZ0
    {
        type            symmetry;
    }
    symmetryZ05
    {
        type            symmetry;
    }
    procBoundary0to1
    {
        type            processor;
        value           uniform 0;
    }
}


// ************************************************************************* //
