/*--------------------------------*- C++ -*----------------------------------*\
| =========                 |                                                 |
| \\      /  F ield         | OpenFOAM: The Open Source CFD Toolbox           |
|  \\    /   O peration     | Version:  2412                                  |
|   \\  /    A nd           | Website:  www.openfoam.com                      |
|    \\/     M anipulation  |                                                 |
\*---------------------------------------------------------------------------*/
FoamFile
{
    version     2.0;
    format      ascii;
    arch        "LSB;label=32;scalar=64";
    class       volScalarField;
    location    "2.7e-06";
    object      E_dof0;
}
// * * * * * * * * * * * * * * * * * * * * * * * * * * * * * * * * * * * * * //

dimensions      [0 0 0 0 0 0 0];

internalField   nonuniform List<scalar> 
84
(
99.4323
60.6757
64.6064
99.4395
60.6883
64.6178
99.4377
60.6869
64.6164
99.4377
60.6869
64.6164
99.4377
60.6869
64.6164
99.4377
60.6869
64.6164
99.4377
60.6869
64.6164
99.4377
60.6869
64.6164
99.4377
60.6869
64.6164
99.4377
60.6869
64.6164
99.4377
60.6869
64.6163
99.4378
60.6837
64.6139
84.2678
83.3599
83.6023
86.3962
85.4176
85.6667
86.1772
85.2058
85.4533
85.9586
84.9944
85.0472
83.2821
85.7404
84.7834
84.8328
85.0543
85.5237
84.5739
84.62
84.841
85.3119
84.3689
84.4117
84.6324
85.103
84.1668
84.2064
84.4262
84.9146
83.9837
84.0205
84.03
83.3228
84.6382
83.7185
83.751
83.7565
83.9772
84.4368
83.5233
83.5527
83.5557
83.8018
84.2272
83.3204
83.3468
83.5652
)
;

boundaryField
{
    inlet
    {
        type            calculated;
        value           uniform 99.4306;
    }
    outlet2
    {
        type            calculated;
        value           uniform 99.4306;
    }
    outlet1
    {
        type            calculated;
        value           nonuniform List<scalar> 0();
    }
    wall
    {
        type            calculated;
        value           uniform 99.4306;
    }
    symmetryBottom
    {
        type            symmetry;
    }
    symmetryZ0
    {
        type            symmetry;
    }
    symmetryZ05
    {
        type            symmetry;
    }
    procBoundary1to0
    {
        type            processor;
        value           uniform 99.4306;
    }
}


// ************************************************************************* //
