/*--------------------------------*- C++ -*----------------------------------*\
| =========                 |                                                 |
| \\      /  F ield         | OpenFOAM: The Open Source CFD Toolbox           |
|  \\    /   O peration     | Version:  2412                                  |
|   \\  /    A nd           | Website:  www.openfoam.com                      |
|    \\/     M anipulation  |                                                 |
\*---------------------------------------------------------------------------*/
FoamFile
{
    version     2.0;
    format      ascii;
    arch        "LSB;label=32;scalar=64";
    class       volScalarField;
    location    "2.7e-06";
    object      rho_dof0;
}
// * * * * * * * * * * * * * * * * * * * * * * * * * * * * * * * * * * * * * //

dimensions      [0 0 0 0 0 0 0];

internalField   nonuniform List<scalar> 
84
(
2.8109e-05
1.72675e-05
1.83549e-05
2.8111e-05
1.72711e-05
1.83581e-05
2.81105e-05
1.72707e-05
1.83577e-05
2.81105e-05
1.72707e-05
1.83577e-05
2.81105e-05
1.72707e-05
1.83577e-05
2.81105e-05
1.72707e-05
1.83577e-05
2.81105e-05
1.72707e-05
1.83577e-05
2.81105e-05
1.72707e-05
1.83577e-05
2.81105e-05
1.72707e-05
1.83577e-05
2.81105e-05
1.72707e-05
1.83577e-05
2.81105e-05
1.72707e-05
1.83577e-05
2.81105e-05
1.72699e-05
1.8357e-05
2.38713e-05
2.36199e-05
2.36875e-05
2.44609e-05
2.41901e-05
2.42596e-05
2.43996e-05
2.41308e-05
2.41999e-05
2.43385e-05
2.40717e-05
2.40863e-05
2.35924e-05
2.42774e-05
2.40126e-05
2.40263e-05
2.40882e-05
2.42164e-05
2.39536e-05
2.39663e-05
2.40282e-05
2.41555e-05
2.38947e-05
2.39065e-05
2.39682e-05
2.40951e-05
2.38363e-05
2.38472e-05
2.39086e-05
2.40335e-05
2.37767e-05
2.37866e-05
2.37891e-05
2.36046e-05
2.39756e-05
2.37206e-05
2.37297e-05
2.37313e-05
2.37932e-05
2.39145e-05
2.36616e-05
2.36697e-05
2.36706e-05
2.37394e-05
2.38548e-05
2.36038e-05
2.3611e-05
2.36721e-05
)
;

boundaryField
{
    inlet
    {
        type            calculated;
        value           uniform 2.81085e-05;
    }
    outlet2
    {
        type            calculated;
        value           uniform 2.81085e-05;
    }
    outlet1
    {
        type            calculated;
        value           nonuniform List<scalar> 0();
    }
    wall
    {
        type            calculated;
        value           uniform 2.81085e-05;
    }
    symmetryBottom
    {
        type            symmetry;
    }
    symmetryZ0
    {
        type            symmetry;
    }
    symmetryZ05
    {
        type            symmetry;
    }
    procBoundary1to0
    {
        type            processor;
        value           uniform 2.81085e-05;
    }
}


// ************************************************************************* //
