/*--------------------------------*- C++ -*----------------------------------*\
| =========                 |                                                 |
| \\      /  F ield         | OpenFOAM: The Open Source CFD Toolbox           |
|  \\    /   O peration     | Version:  2412                                  |
|   \\  /    A nd           | Website:  www.openfoam.com                      |
|    \\/     M anipulation  |                                                 |
\*---------------------------------------------------------------------------*/
FoamFile
{
    version     2.0;
    format      ascii;
    arch        "LSB;label=32;scalar=64";
    class       volVectorField;
    location    "2.7e-06";
    object      rhoU_dof0;
}
// * * * * * * * * * * * * * * * * * * * * * * * * * * * * * * * * * * * * * //

dimensions      [0 0 0 0 0 0 0];

internalField   nonuniform List<vector> 
84
(
(0.0741062 -1.27207e-07 0)
(0.0453697 -3.30519e-07 0)
(0.0482683 -2.86795e-07 -8.11876e-20)
(0.0741115 -6.81077e-05 0)
(0.0453791 -4.77125e-05 0)
(0.0482768 -4.99483e-05 -7.96253e-20)
(0.0741102 -6.79738e-05 0)
(0.0453781 -4.76154e-05 0)
(0.0482758 -4.98471e-05 1.10851e-19)
(0.0741102 -6.79738e-05 0)
(0.0453781 -4.76154e-05 0)
(0.0482758 -4.98471e-05 -1.45221e-19)
(0.0741102 -6.79738e-05 0)
(0.0453781 -4.76154e-05 0)
(0.0482758 -4.98471e-05 -2.4513e-19)
(0.0741102 -6.79738e-05 0)
(0.0453781 -4.76154e-05 0)
(0.0482758 -4.98471e-05 1.40516e-19)
(0.0741102 -6.79738e-05 0)
(0.0453781 -4.76154e-05 0)
(0.0482758 -4.98471e-05 -1.78007e-19)
(0.0741102 -6.79738e-05 0)
(0.0453781 -4.76154e-05 0)
(0.0482758 -4.98471e-05 -2.13905e-19)
(0.0741102 -6.79738e-05 0)
(0.0453781 -4.76154e-05 0)
(0.0482758 -4.98471e-05 8.11827e-20)
(0.0741102 -6.79738e-05 0)
(0.0453781 -4.76154e-05 0)
(0.0482758 -4.98471e-05 -1.78019e-19)
(0.0741102 -6.79738e-05 0)
(0.0453781 -4.76146e-05 0)
(0.0482758 -4.98464e-05 -4.35625e-19)
(0.0741103 -6.79833e-05 0)
(0.0453758 -4.73847e-05 0)
(0.0482739 -4.96643e-05 0)
(0.0628632 6.73964e-05 3.54639e-21)
(0.0621935 6.51681e-05 7.13983e-20)
(0.062373 6.5383e-05 7.14648e-21)
(0.0644384 -6.73587e-05 3.4149e-21)
(0.0637168 -6.76063e-05 7.66803e-20)
(0.0639012 -6.77464e-05 -8.74024e-22)
(0.064276 -6.72056e-05 -5.36536e-21)
(0.0635596 -6.74525e-05 -3.52115e-20)
(0.0637429 -6.75627e-05 -1.56567e-19)
(0.064114 -6.70499e-05 6.89023e-21)
(0.0634029 -6.72992e-05 -1.36043e-21)
(0.0634418 -6.82931e-05 4.88874e-23)
(0.0621329 2.08271e-06 1.09982e-19)
(0.0639522 -6.69018e-05 -2.77939e-20)
(0.0632464 -6.71533e-05 6.60333e-23)
(0.0632828 -6.81428e-05 -1.16666e-21)
(0.063447 -6.82666e-05 1.13568e-19)
(0.0637902 -6.35685e-05 -6.73411e-21)
(0.0630897 -6.39344e-05 -7.65582e-20)
(0.0631236 -6.48782e-05 1.07982e-21)
(0.0632876 -6.49971e-05 7.45896e-20)
(0.0636277 -5.06515e-05 7.84385e-21)
(0.0629325 -5.14248e-05 -4.20514e-22)
(0.0629639 -5.21678e-05 -3.89787e-22)
(0.0631276 -5.22643e-05 -6.12901e-22)
(0.0634671 -4.23832e-05 1.03213e-20)
(0.0627772 -4.34161e-05 -7.41732e-20)
(0.0628062 -4.40342e-05 8.12917e-20)
(0.0629691 -4.40942e-05 7.21152e-22)
(0.0633036 -3.79276e-05 -3.5216e-21)
(0.0626187 -3.90931e-05 -1.11175e-19)
(0.0626451 -3.96362e-05 -1.08282e-19)
(0.0626516 -4.02133e-05 1.22879e-19)
(0.062165 2.22053e-06 7.25645e-19)
(0.0631511 -3.77015e-05 8.65858e-21)
(0.062472 -3.8867e-05 -1.11791e-19)
(0.0624962 -3.93969e-05 7.61964e-20)
(0.0625005 -3.99616e-05 1.82413e-19)
(0.0626644 -4.01421e-05 1.09387e-19)
(0.0629898 -4.26671e-05 2.10882e-20)
(0.0623158 -4.36664e-05 -5.52613e-22)
(0.0623375 -4.42736e-05 1.54306e-22)
(0.0623397 -4.49319e-05 -6.58828e-23)
(0.0625221 -4.64264e-05 -1.13024e-19)
(0.0628319 -5.15941e-05 8.27368e-23)
(0.0621629 -5.22838e-05 1.07782e-19)
(0.0621822 -5.30233e-05 -4.61288e-21)
(0.0623442 -5.31117e-05 -1.92368e-19)
)
;

boundaryField
{
    inlet
    {
        type            calculated;
        value           uniform (0.0741049 0 0);
    }
    outlet2
    {
        type            calculated;
        value           uniform (0.0741049 0 0);
    }
    outlet1
    {
        type            calculated;
        value           nonuniform List<vector> 0();
    }
    wall
    {
        type            calculated;
        value           uniform (0.0741049 0 0);
    }
    symmetryBottom
    {
        type            symmetry;
    }
    symmetryZ0
    {
        type            symmetry;
    }
    symmetryZ05
    {
        type            symmetry;
    }
    procBoundary1to0
    {
        type            processor;
        value           uniform (0.0741049 0 0);
    }
}


// ************************************************************************* //
