/*--------------------------------*- C++ -*----------------------------------*\
| =========                 |                                                 |
| \\      /  F ield         | OpenFOAM: The Open Source CFD Toolbox           |
|  \\    /   O peration     | Version:  2412                                  |
|   \\  /    A nd           | Website:  www.openfoam.com                      |
|    \\/     M anipulation  |                                                 |
\*---------------------------------------------------------------------------*/
FoamFile
{
    version     2.0;
    format      ascii;
    arch        "LSB;label=32;scalar=64";
    class       volScalarField;
    location    "2.7e-06";
    object      T;
}
// * * * * * * * * * * * * * * * * * * * * * * * * * * * * * * * * * * * * * //

dimensions      [0 0 0 0 0 0 0];

internalField   nonuniform List<scalar> 
84
(
200.003
199.929
200.017
199.993
199.91
200
199.991
199.907
199.997
199.991
199.907
199.997
199.991
199.907
199.997
199.991
199.907
199.997
199.991
199.907
199.997
199.991
199.907
199.997
199.991
199.907
199.997
199.991
199.907
199.997
199.991
199.907
199.997
199.991
199.9
199.992
201.648
201.605
201.607
200.007
199.999
199.999
200.007
199.999
200
200.007
199.999
199.999
200.005
200.008
199.999
200
200
200.305
200.289
200.294
200.293
201.478
201.438
201.46
201.459
202.582
202.518
202.557
202.555
206.939
206.772
206.881
206.984
199.717
197.25
197.296
197.255
197.215
197.171
199.351
199.356
199.347
199.338
199.359
199.733
199.73
199.726
199.727
)
;

boundaryField
{
    inlet
    {
        type            calculated;
        value           uniform 0;
    }
    outlet2
    {
        type            calculated;
        value           uniform 0;
    }
    outlet1
    {
        type            calculated;
        value           nonuniform List<scalar> 0();
    }
    wall
    {
        type            calculated;
        value           uniform 0;
    }
    symmetryBottom
    {
        type            symmetry;
    }
    symmetryZ0
    {
        type            symmetry;
    }
    symmetryZ05
    {
        type            symmetry;
    }
    procBoundary1to0
    {
        type            processor;
        value           uniform 0;
    }
}


// ************************************************************************* //
