/*--------------------------------*- C++ -*----------------------------------*\
| =========                 |                                                 |
| \\      /  F ield         | OpenFOAM: The Open Source CFD Toolbox           |
|  \\    /   O peration     | Version:  2412                                  |
|   \\  /    A nd           | Website:  www.openfoam.com                      |
|    \\/     M anipulation  |                                                 |
\*---------------------------------------------------------------------------*/
FoamFile
{
    version     2.0;
    format      ascii;
    arch        "LSB;label=32;scalar=64";
    class       volScalarField;
    location    "7.3e-06";
    object      rho_dof0;
}
// * * * * * * * * * * * * * * * * * * * * * * * * * * * * * * * * * * * * * //

dimensions      [0 0 0 0 0 0 0];

internalField   nonuniform List<scalar> 
84
(
2.81115e-05
3.41207e-06
9.83185e-06
2.81235e-05
3.41941e-06
9.83961e-06
2.81205e-05
3.41853e-06
9.83808e-06
2.81205e-05
3.41852e-06
9.83808e-06
2.81205e-05
3.41852e-06
9.83808e-06
2.81205e-05
3.41852e-06
9.83808e-06
2.81205e-05
3.41852e-06
9.83808e-06
2.81205e-05
3.41852e-06
9.83808e-06
2.81205e-05
3.41852e-06
9.83808e-06
2.81205e-05
3.41852e-06
9.83808e-06
2.81205e-05
3.41851e-06
9.83807e-06
2.81205e-05
3.41671e-06
9.83734e-06
1.88061e-05
1.74998e-05
1.77435e-05
2.0119e-05
1.864e-05
1.89066e-05
1.99783e-05
1.85176e-05
1.87801e-05
1.98383e-05
1.83961e-05
1.85357e-05
1.74468e-05
1.9699e-05
1.82751e-05
1.84111e-05
1.85415e-05
1.95597e-05
1.81541e-05
1.82866e-05
1.84163e-05
1.94208e-05
1.80336e-05
1.81625e-05
1.82916e-05
1.9285e-05
1.79157e-05
1.80411e-05
1.81687e-05
1.91405e-05
1.77905e-05
1.79121e-05
1.79104e-05
1.75218e-05
1.90209e-05
1.76861e-05
1.78049e-05
1.78017e-05
1.79348e-05
1.88809e-05
1.75646e-05
1.76798e-05
1.76754e-05
1.78547e-05
1.87506e-05
1.74511e-05
1.75631e-05
1.76889e-05
)
;

boundaryField
{
    inlet
    {
        type            calculated;
        value           uniform 2.81085e-05;
    }
    outlet2
    {
        type            calculated;
        value           uniform 2.81085e-05;
    }
    outlet1
    {
        type            calculated;
        value           nonuniform List<scalar> 0();
    }
    wall
    {
        type            calculated;
        value           uniform 2.81085e-05;
    }
    symmetryBottom
    {
        type            symmetry;
    }
    symmetryZ0
    {
        type            symmetry;
    }
    symmetryZ05
    {
        type            symmetry;
    }
    procBoundary1to0
    {
        type            processor;
        value           uniform 2.81085e-05;
    }
}


// ************************************************************************* //
