/*--------------------------------*- C++ -*----------------------------------*\
| =========                 |                                                 |
| \\      /  F ield         | OpenFOAM: The Open Source CFD Toolbox           |
|  \\    /   O peration     | Version:  2412                                  |
|   \\  /    A nd           | Website:  www.openfoam.com                      |
|    \\/     M anipulation  |                                                 |
\*---------------------------------------------------------------------------*/
FoamFile
{
    version     2.0;
    format      ascii;
    arch        "LSB;label=32;scalar=64";
    class       volVectorField;
    location    "7.3e-06";
    object      rhoU_dof0;
}
// * * * * * * * * * * * * * * * * * * * * * * * * * * * * * * * * * * * * * //

dimensions      [0 0 0 0 0 0 0];

internalField   nonuniform List<vector> 
84
(
(0.0741128 -7.8873e-07 0)
(0.00870534 -6.84927e-07 0)
(0.0257962 -5.96644e-07 -1.13995e-19)
(0.0741444 -0.000153852 0)
(0.00872444 -3.42098e-05 0)
(0.0258166 -7.0273e-05 -1.13984e-19)
(0.0741365 -0.000153097 0)
(0.00872216 -3.40071e-05 0)
(0.0258126 -6.98984e-05 1.53782e-19)
(0.0741365 -0.000153097 0)
(0.00872216 -3.40071e-05 0)
(0.0258126 -6.98984e-05 -2.13314e-19)
(0.0741365 -0.000153097 0)
(0.00872216 -3.40071e-05 0)
(0.0258126 -6.98984e-05 -3.25596e-19)
(0.0741365 -0.000153097 0)
(0.00872216 -3.40071e-05 0)
(0.0258126 -6.98984e-05 2.09996e-19)
(0.0741365 -0.000153097 0)
(0.00872216 -3.40071e-05 0)
(0.0258126 -6.98984e-05 -2.42193e-19)
(0.0741365 -0.000153097 0)
(0.00872216 -3.40071e-05 0)
(0.0258126 -6.98984e-05 -2.74081e-19)
(0.0741365 -0.000153097 0)
(0.00872216 -3.40071e-05 0)
(0.0258126 -6.98984e-05 1.14722e-19)
(0.0741365 -0.000153097 0)
(0.00872216 -3.4007e-05 0)
(0.0258126 -6.98983e-05 -2.43091e-19)
(0.0741365 -0.000153097 0)
(0.00872211 -3.40019e-05 0)
(0.0258125 -6.98961e-05 -6.41947e-19)
(0.0741366 -0.000153115 0)
(0.00871742 -3.35443e-05 0)
(0.0258106 -6.97064e-05 0)
(0.0494465 0.000144989 1.86255e-20)
(0.0459763 0.000125801 1.56384e-19)
(0.0466242 0.00012834 1.66378e-20)
(0.0529509 -0.000149698 1.79786e-20)
(0.049017 -0.000140897 1.7318e-19)
(0.0497267 -0.000142579 -5.50658e-21)
(0.0525783 -0.000148718 -2.50273e-20)
(0.0486933 -0.000139995 -8.30511e-20)
(0.0493919 -0.000141462 -2.55337e-19)
(0.0522076 -0.000147708 3.27093e-20)
(0.0483718 -0.000139101 -5.44496e-21)
(0.048745 -0.000142095 4.57271e-22)
(0.0458626 1.29102e-05 2.10513e-19)
(0.0518387 -0.00014676 -3.27677e-20)
(0.0480518 -0.000138259 1.33879e-21)
(0.0484154 -0.000141217 -2.6086e-21)
(0.0487602 -0.000141943 2.12843e-19)
(0.0514692 -0.000140616 -3.21717e-20)
(0.0477312 -0.000132983 -1.64699e-19)
(0.0480853 -0.000135815 1.5284e-20)
(0.0484285 -0.000136518 1.86645e-19)
(0.0510982 -0.000110293 3.74566e-20)
(0.0474092 -0.000106555 -4.7234e-21)
(0.0477538 -0.0001086 4.57309e-22)
(0.0480954 -0.000109176 -1.4618e-21)
(0.0507373 -9.20714e-05 4.52216e-20)
(0.0470957 -9.06153e-05 -1.67887e-19)
(0.0474312 -9.22198e-05 1.8808e-19)
(0.0477686 -9.25686e-05 3.05741e-21)
(0.0503527 -7.9688e-05 -1.81068e-20)
(0.0467604 -7.97868e-05 -2.1439e-19)
(0.0470862 -8.10334e-05 -2.04329e-19)
(0.0470811 -8.22271e-05 2.40918e-19)
(0.0460593 1.35629e-05 1.37261e-18)
(0.0500416 -7.65755e-05 3.91429e-20)
(0.0464943 -7.70762e-05 -2.18235e-19)
(0.0468117 -7.81824e-05 1.85041e-19)
(0.046803 -7.92856e-05 2.95933e-19)
(0.0471555 -8.04913e-05 2.08284e-19)
(0.0496713 -8.83239e-05 9.92856e-20)
(0.046172 -8.72088e-05 -8.32406e-21)
(0.0464801 -8.8633e-05 7.90482e-22)
(0.0464682 -9.00307e-05 -6.08148e-22)
(0.0469427 -9.94832e-05 -2.17975e-19)
(0.0493271 -0.000107339 1.78298e-22)
(0.0458723 -0.000103617 2.15916e-19)
(0.046172 -0.00010551 -2.83762e-20)
(0.0465049 -0.000106009 -3.00369e-19)
)
;

boundaryField
{
    inlet
    {
        type            calculated;
        value           uniform (0.0741049 0 0);
    }
    outlet2
    {
        type            calculated;
        value           uniform (0.0741049 0 0);
    }
    outlet1
    {
        type            calculated;
        value           nonuniform List<vector> 0();
    }
    wall
    {
        type            calculated;
        value           uniform (0.0741049 0 0);
    }
    symmetryBottom
    {
        type            symmetry;
    }
    symmetryZ0
    {
        type            symmetry;
    }
    symmetryZ05
    {
        type            symmetry;
    }
    procBoundary1to0
    {
        type            processor;
        value           uniform (0.0741049 0 0);
    }
}


// ************************************************************************* //
