/*--------------------------------*- C++ -*----------------------------------*\
| =========                 |                                                 |
| \\      /  F ield         | OpenFOAM: The Open Source CFD Toolbox           |
|  \\    /   O peration     | Version:  2412                                  |
|   \\  /    A nd           | Website:  www.openfoam.com                      |
|    \\/     M anipulation  |                                                 |
\*---------------------------------------------------------------------------*/
FoamFile
{
    version     2.0;
    format      ascii;
    arch        "LSB;label=32;scalar=64";
    class       volVectorField;
    location    "7.3e-06";
    object      U;
}
// * * * * * * * * * * * * * * * * * * * * * * * * * * * * * * * * * * * * * //

dimensions      [0 0 0 0 0 0 0];

internalField   nonuniform List<vector> 
84
(
(2636.39 -0.0280572 0)
(2551.33 -0.200736 0)
(2623.74 -0.0606848 -1.15945e-14)
(2636.39 -5.4706 0)
(2551.45 -10.0046 0)
(2623.74 -7.14185 -1.15842e-14)
(2636.39 -5.44433 0)
(2551.44 -9.9479 0)
(2623.74 -7.10488 1.56313e-14)
(2636.39 -5.44432 0)
(2551.44 -9.94788 0)
(2623.74 -7.10488 -2.16825e-14)
(2636.39 -5.44432 0)
(2551.44 -9.94788 0)
(2623.74 -7.10488 -3.30955e-14)
(2636.39 -5.44432 0)
(2551.44 -9.94788 0)
(2623.74 -7.10488 2.13452e-14)
(2636.39 -5.44432 0)
(2551.44 -9.94788 0)
(2623.74 -7.10488 -2.46179e-14)
(2636.39 -5.44432 0)
(2551.44 -9.94788 0)
(2623.74 -7.10488 -2.78592e-14)
(2636.39 -5.44432 0)
(2551.44 -9.94788 0)
(2623.74 -7.10488 1.1661e-14)
(2636.39 -5.44432 0)
(2551.44 -9.94787 0)
(2623.74 -7.10487 -2.47092e-14)
(2636.39 -5.44433 0)
(2551.44 -9.94643 0)
(2623.74 -7.10466 -6.52513e-14)
(2636.39 -5.44496 0)
(2551.41 -9.81773 0)
(2623.74 -7.0859 0)
(2629.28 7.70964 9.90396e-16)
(2627.25 7.18869 8.93636e-15)
(2627.68 7.2331 9.37686e-16)
(2631.88 -7.44064 8.9361e-16)
(2629.67 -7.55888 9.2908e-15)
(2630.12 -7.54121 -2.91252e-16)
(2631.77 -7.44398 -1.25272e-15)
(2629.57 -7.56008 -4.48498e-15)
(2630.02 -7.53254 -1.35961e-14)
(2631.65 -7.44559 1.64879e-15)
(2629.47 -7.56146 -2.95985e-16)
(2629.8 -7.66601 2.46698e-17)
(2628.71 0.739977 1.2066e-14)
(2631.54 -7.45009 -1.66342e-15)
(2629.36 -7.56546 7.32578e-17)
(2629.69 -7.6702 -1.41686e-16)
(2629.8 -7.65546 1.14793e-14)
(2631.39 -7.18908 -1.64479e-15)
(2629.22 -7.32521 -9.07229e-15)
(2629.54 -7.42706 8.35805e-16)
(2629.65 -7.4129 1.01347e-14)
(2631.11 -5.67911 1.92869e-15)
(2628.94 -5.9087 -2.61922e-16)
(2629.26 -5.97939 2.51788e-17)
(2629.37 -5.96863 -7.99161e-17)
(2630.93 -4.77426 2.34492e-15)
(2628.74 -5.05786 -9.3709e-15)
(2629.06 -5.11164 1.04251e-14)
(2629.17 -5.09494 1.68279e-16)
(2630.69 -4.16333 -9.45995e-16)
(2628.39 -4.4848 -1.20508e-14)
(2628.73 -4.52393 -1.14073e-14)
(2628.7 -4.59102 1.34513e-14)
(2628.68 0.774056 7.83375e-14)
(2630.88 -4.02587 2.05789e-15)
(2628.86 -4.35801 -1.23393e-14)
(2629.15 -4.39106 1.03927e-14)
(2629.13 -4.45382 1.66238e-14)
(2629.27 -4.48799 1.16134e-14)
(2630.77 -4.67795 5.25853e-15)
(2628.7 -4.96504 -4.73912e-16)
(2629 -5.01325 4.47112e-17)
(2628.98 -5.09357 -3.44065e-17)
(2629.15 -5.57181 -1.22082e-14)
(2630.7 -5.72455 9.50894e-18)
(2628.63 -5.93758 1.23726e-14)
(2628.93 -6.00751 -1.61568e-15)
(2629.04 -5.99294 -1.69806e-14)
)
;

boundaryField
{
    inlet
    {
        type            calculated;
        value           uniform (0 0 0);
    }
    outlet2
    {
        type            calculated;
        value           uniform (0 0 0);
    }
    outlet1
    {
        type            calculated;
        value           nonuniform List<vector> 0();
    }
    wall
    {
        type            calculated;
        value           uniform (0 0 0);
    }
    symmetryBottom
    {
        type            symmetry;
    }
    symmetryZ0
    {
        type            symmetry;
    }
    symmetryZ05
    {
        type            symmetry;
    }
    procBoundary1to0
    {
        type            processor;
        value           uniform (0 0 0);
    }
}


// ************************************************************************* //
